VARIABLES = "X","Y","Z",VELOCITY1_X,VELOCITY1_Y,VELOCITY1_Z
ZONE T="0.000000000000e+00s", 
9.890000000000e+02 0.000000000000e+00 5.000000000000e-01 0.000000000000e+00 0.000000000000e+00 0.000000000000e+00
9.900000000000e+02 0.000000000000e+00 5.000000000000e-01 0.000000000000e+00 0.000000000000e+00 0.000000000000e+00
9.890000000000e+02 0.000000000000e+00 1.500000000000e+00 0.000000000000e+00 0.000000000000e+00 0.000000000000e+00
9.900000000000e+02 0.000000000000e+00 1.500000000000e+00 0.000000000000e+00 0.000000000000e+00 0.000000000000e+00
9.890000000000e+02 0.000000000000e+00 2.500000000000e+00 0.000000000000e+00 0.000000000000e+00 0.000000000000e+00
9.900000000000e+02 0.000000000000e+00 2.500000000000e+00 0.000000000000e+00 0.000000000000e+00 0.000000000000e+00
9.890000000000e+02 0.000000000000e+00 3.500000000000e+00 0.000000000000e+00 0.000000000000e+00 0.000000000000e+00
9.900000000000e+02 0.000000000000e+00 3.500000000000e+00 0.000000000000e+00 0.000000000000e+00 0.000000000000e+00
9.890000000000e+02 0.000000000000e+00 4.500000000000e+00 0.000000000000e+00 0.000000000000e+00 0.000000000000e+00
9.900000000000e+02 0.000000000000e+00 4.500000000000e+00 0.000000000000e+00 0.000000000000e+00 0.000000000000e+00
9.890000000000e+02 0.000000000000e+00 5.500000000000e+00 0.000000000000e+00 0.000000000000e+00 0.000000000000e+00
9.900000000000e+02 0.000000000000e+00 5.500000000000e+00 0.000000000000e+00 0.000000000000e+00 0.000000000000e+00
9.890000000000e+02 0.000000000000e+00 6.500000000000e+00 0.000000000000e+00 0.000000000000e+00 0.000000000000e+00
9.900000000000e+02 0.000000000000e+00 6.500000000000e+00 0.000000000000e+00 0.000000000000e+00 0.000000000000e+00
9.890000000000e+02 0.000000000000e+00 7.500000000000e+00 0.000000000000e+00 0.000000000000e+00 0.000000000000e+00
9.900000000000e+02 0.000000000000e+00 7.500000000000e+00 0.000000000000e+00 0.000000000000e+00 0.000000000000e+00
9.890000000000e+02 0.000000000000e+00 8.500000000000e+00 0.000000000000e+00 0.000000000000e+00 0.000000000000e+00
9.900000000000e+02 0.000000000000e+00 8.500000000000e+00 0.000000000000e+00 0.000000000000e+00 0.000000000000e+00
9.890000000000e+02 0.000000000000e+00 9.500000000000e+00 0.000000000000e+00 0.000000000000e+00 0.000000000000e+00
9.900000000000e+02 0.000000000000e+00 9.500000000000e+00 0.000000000000e+00 0.000000000000e+00 0.000000000000e+00
9.890000000000e+02 0.000000000000e+00 1.050000000000e+01 0.000000000000e+00 0.000000000000e+00 0.000000000000e+00
9.900000000000e+02 0.000000000000e+00 1.050000000000e+01 0.000000000000e+00 0.000000000000e+00 0.000000000000e+00
9.890000000000e+02 0.000000000000e+00 1.150000000000e+01 0.000000000000e+00 0.000000000000e+00 0.000000000000e+00
9.900000000000e+02 0.000000000000e+00 1.150000000000e+01 0.000000000000e+00 0.000000000000e+00 0.000000000000e+00
9.890000000000e+02 0.000000000000e+00 1.250000000000e+01 0.000000000000e+00 0.000000000000e+00 0.000000000000e+00
9.900000000000e+02 0.000000000000e+00 1.250000000000e+01 0.000000000000e+00 0.000000000000e+00 0.000000000000e+00
9.890000000000e+02 0.000000000000e+00 1.350000000000e+01 0.000000000000e+00 0.000000000000e+00 0.000000000000e+00
9.900000000000e+02 0.000000000000e+00 1.350000000000e+01 0.000000000000e+00 0.000000000000e+00 0.000000000000e+00
9.890000000000e+02 0.000000000000e+00 1.450000000000e+01 0.000000000000e+00 0.000000000000e+00 0.000000000000e+00
9.900000000000e+02 0.000000000000e+00 1.450000000000e+01 0.000000000000e+00 0.000000000000e+00 0.000000000000e+00
9.890000000000e+02 0.000000000000e+00 1.550000000000e+01 0.000000000000e+00 0.000000000000e+00 0.000000000000e+00
9.900000000000e+02 0.000000000000e+00 1.550000000000e+01 0.000000000000e+00 0.000000000000e+00 0.000000000000e+00
9.890000000000e+02 0.000000000000e+00 1.650000000000e+01 0.000000000000e+00 0.000000000000e+00 0.000000000000e+00
9.900000000000e+02 0.000000000000e+00 1.650000000000e+01 0.000000000000e+00 0.000000000000e+00 0.000000000000e+00
9.890000000000e+02 0.000000000000e+00 1.750000000000e+01 0.000000000000e+00 0.000000000000e+00 0.000000000000e+00
9.900000000000e+02 0.000000000000e+00 1.750000000000e+01 0.000000000000e+00 0.000000000000e+00 0.000000000000e+00
9.890000000000e+02 0.000000000000e+00 1.850000000000e+01 0.000000000000e+00 0.000000000000e+00 0.000000000000e+00
9.900000000000e+02 0.000000000000e+00 1.850000000000e+01 0.000000000000e+00 0.000000000000e+00 0.000000000000e+00
9.890000000000e+02 0.000000000000e+00 1.950000000000e+01 0.000000000000e+00 0.000000000000e+00 0.000000000000e+00
9.900000000000e+02 0.000000000000e+00 1.950000000000e+01 0.000000000000e+00 0.000000000000e+00 0.000000000000e+00
9.890000000000e+02 0.000000000000e+00 2.050000000000e+01 0.000000000000e+00 0.000000000000e+00 0.000000000000e+00
9.900000000000e+02 0.000000000000e+00 2.050000000000e+01 0.000000000000e+00 0.000000000000e+00 0.000000000000e+00
9.890000000000e+02 0.000000000000e+00 2.150000000000e+01 0.000000000000e+00 0.000000000000e+00 0.000000000000e+00
9.900000000000e+02 0.000000000000e+00 2.150000000000e+01 0.000000000000e+00 0.000000000000e+00 0.000000000000e+00
9.890000000000e+02 0.000000000000e+00 2.250000000000e+01 0.000000000000e+00 0.000000000000e+00 0.000000000000e+00
9.900000000000e+02 0.000000000000e+00 2.250000000000e+01 0.000000000000e+00 0.000000000000e+00 0.000000000000e+00
9.890000000000e+02 0.000000000000e+00 2.350000000000e+01 0.000000000000e+00 0.000000000000e+00 0.000000000000e+00
9.900000000000e+02 0.000000000000e+00 2.350000000000e+01 0.000000000000e+00 0.000000000000e+00 0.000000000000e+00
9.890000000000e+02 0.000000000000e+00 2.450000000000e+01 0.000000000000e+00 0.000000000000e+00 0.000000000000e+00
9.900000000000e+02 0.000000000000e+00 2.450000000000e+01 0.000000000000e+00 0.000000000000e+00 0.000000000000e+00
9.890000000000e+02 0.000000000000e+00 2.550000000000e+01 0.000000000000e+00 0.000000000000e+00 0.000000000000e+00
9.900000000000e+02 0.000000000000e+00 2.550000000000e+01 0.000000000000e+00 0.000000000000e+00 0.000000000000e+00
9.890000000000e+02 0.000000000000e+00 2.650000000000e+01 0.000000000000e+00 0.000000000000e+00 0.000000000000e+00
9.900000000000e+02 0.000000000000e+00 2.650000000000e+01 0.000000000000e+00 0.000000000000e+00 0.000000000000e+00
9.890000000000e+02 0.000000000000e+00 2.750000000000e+01 0.000000000000e+00 0.000000000000e+00 0.000000000000e+00
9.900000000000e+02 0.000000000000e+00 2.750000000000e+01 0.000000000000e+00 0.000000000000e+00 0.000000000000e+00
9.890000000000e+02 0.000000000000e+00 2.850000000000e+01 0.000000000000e+00 0.000000000000e+00 0.000000000000e+00
9.900000000000e+02 0.000000000000e+00 2.850000000000e+01 0.000000000000e+00 0.000000000000e+00 0.000000000000e+00
9.890000000000e+02 0.000000000000e+00 2.950000000000e+01 0.000000000000e+00 0.000000000000e+00 0.000000000000e+00
9.900000000000e+02 0.000000000000e+00 2.950000000000e+01 0.000000000000e+00 0.000000000000e+00 0.000000000000e+00
VARIABLES = "X","Y","Z",VELOCITY1_X,VELOCITY1_Y,VELOCITY1_Z
ZONE T="1.797693134862e+308s", 
9.890000000000e+02 0.000000000000e+00 5.000000000000e-01 4.836032750280e-08 -3.913261707080e-12 0.000000000000e+00
9.900000000000e+02 0.000000000000e+00 5.000000000000e-01 4.836752566759e-08 -3.559449700275e-12 0.000000000000e+00
9.890000000000e+02 0.000000000000e+00 1.500000000000e+00 1.423544662422e-09 -7.942492434444e-12 0.000000000000e+00
9.900000000000e+02 0.000000000000e+00 1.500000000000e+00 1.423756948942e-09 -7.224398760090e-12 0.000000000000e+00
9.890000000000e+02 0.000000000000e+00 2.500000000000e+00 1.618283364616e-09 -8.192411013292e-12 0.000000000000e+00
9.900000000000e+02 0.000000000000e+00 2.500000000000e+00 1.618528274309e-09 -7.451743511714e-12 0.000000000000e+00
9.890000000000e+02 0.000000000000e+00 3.500000000000e+00 5.986243939702e-07 -5.815981856209e-11 0.000000000000e+00
9.900000000000e+02 0.000000000000e+00 3.500000000000e+00 5.987160717136e-07 -5.290973494552e-11 0.000000000000e+00
9.890000000000e+02 0.000000000000e+00 4.500000000000e+00 3.439188798241e-09 -1.082914815066e-10 0.000000000000e+00
9.900000000000e+02 0.000000000000e+00 4.500000000000e+00 3.439721045366e-09 -9.851726668586e-11 0.000000000000e+00
9.890000000000e+02 0.000000000000e+00 5.500000000000e+00 3.381560716593e-07 -1.393067398544e-10 0.000000000000e+00
9.900000000000e+02 0.000000000000e+00 5.500000000000e+00 3.382125911532e-07 -1.267521318116e-10 0.000000000000e+00
9.890000000000e+02 0.000000000000e+00 6.500000000000e+00 5.127899034379e-07 -2.166572581389e-10 0.000000000000e+00
9.900000000000e+02 0.000000000000e+00 6.500000000000e+00 5.128757141366e-07 -1.971692262150e-10 0.000000000000e+00
9.890000000000e+02 0.000000000000e+00 7.500000000000e+00 2.511867456811e-08 -2.656177861285e-10 0.000000000000e+00
9.900000000000e+02 0.000000000000e+00 7.500000000000e+00 2.512289921158e-08 -2.417417724228e-10 0.000000000000e+00
9.890000000000e+02 0.000000000000e+00 8.500000000000e+00 9.392969110926e-08 -2.768237161581e-10 0.000000000000e+00
9.900000000000e+02 0.000000000000e+00 8.500000000000e+00 9.394598530321e-08 -2.519472973164e-10 0.000000000000e+00
9.890000000000e+02 0.000000000000e+00 9.500000000000e+00 1.535909314730e-07 -3.003366075533e-10 0.000000000000e+00
9.900000000000e+02 0.000000000000e+00 9.500000000000e+00 1.536178153901e-07 -2.733633599727e-10 0.000000000000e+00
9.890000000000e+02 0.000000000000e+00 1.050000000000e+01 1.181946293507e-08 -3.161483210369e-10 0.000000000000e+00
9.900000000000e+02 0.000000000000e+00 1.050000000000e+01 1.182156379754e-08 -2.877661287716e-10 0.000000000000e+00
9.890000000000e+02 0.000000000000e+00 1.150000000000e+01 1.176135730001e-08 -3.185986286147e-10 0.000000000000e+00
9.900000000000e+02 0.000000000000e+00 1.150000000000e+01 1.176362836485e-08 -2.900003652573e-10 0.000000000000e+00
9.890000000000e+02 0.000000000000e+00 1.250000000000e+01 2.356336669268e-08 -3.225637721601e-10 0.000000000000e+00
9.900000000000e+02 0.000000000000e+00 1.250000000000e+01 2.356826320588e-08 -2.936190941508e-10 0.000000000000e+00
9.890000000000e+02 0.000000000000e+00 1.350000000000e+01 8.331071776326e-07 -4.223288886858e-10 0.000000000000e+00
9.900000000000e+02 0.000000000000e+00 1.350000000000e+01 8.332862185226e-07 -3.847074498312e-10 0.000000000000e+00
9.890000000000e+02 0.000000000000e+00 1.450000000000e+01 1.066670588313e-06 -6.439507170273e-10 0.000000000000e+00
9.900000000000e+02 0.000000000000e+00 1.450000000000e+01 1.066900252442e-06 -5.870619033553e-10 0.000000000000e+00
9.890000000000e+02 0.000000000000e+00 1.550000000000e+01 1.439019196752e-06 -9.370115746395e-10 0.000000000000e+00
9.900000000000e+02 0.000000000000e+00 1.550000000000e+01 1.439329869094e-06 -8.546650519778e-10 0.000000000000e+00
9.890000000000e+02 0.000000000000e+00 1.650000000000e+01 4.804071352403e-08 -1.111480343448e-09 0.000000000000e+00
9.900000000000e+02 0.000000000000e+00 1.650000000000e+01 4.805125293730e-08 -1.013994355438e-09 0.000000000000e+00
9.890000000000e+02 0.000000000000e+00 1.750000000000e+01 4.240225097219e-09 -1.118326558390e-09 0.000000000000e+00
9.900000000000e+02 0.000000000000e+00 1.750000000000e+01 4.241390951738e-09 -1.020268598243e-09 0.000000000000e+00
9.890000000000e+02 0.000000000000e+00 1.850000000000e+01 2.312465655127e-08 -1.126052853747e-09 0.000000000000e+00
9.900000000000e+02 0.000000000000e+00 1.850000000000e+01 2.313701596218e-08 -1.027467966194e-09 0.000000000000e+00
9.890000000000e+02 0.000000000000e+00 1.950000000000e+01 2.123275012268e-10 -1.133307747997e-09 0.000000000000e+00
9.900000000000e+02 0.000000000000e+00 1.950000000000e+01 2.125958974464e-10 -1.034238755008e-09 0.000000000000e+00
9.890000000000e+02 0.000000000000e+00 2.050000000000e+01 9.418591669804e-08 -1.374459321405e-09 0.000000000000e+00
9.900000000000e+02 0.000000000000e+00 2.050000000000e+01 9.464420820721e-08 -1.262973127515e-09 0.000000000000e+00
9.890000000000e+02 0.000000000000e+00 2.150000000000e+01 1.119944097114e-07 -1.903813366067e-09 0.000000000000e+00
9.900000000000e+02 0.000000000000e+00 2.150000000000e+01 1.125429431235e-07 -1.765325771569e-09 0.000000000000e+00
9.890000000000e+02 0.000000000000e+00 2.250000000000e+01 2.783445640695e-08 -2.266887555246e-09 0.000000000000e+00
9.900000000000e+02 0.000000000000e+00 2.250000000000e+01 2.797332343656e-08 -2.110346020950e-09 0.000000000000e+00
9.890000000000e+02 0.000000000000e+00 2.350000000000e+01 2.448406763601e-08 -2.411243871602e-09 0.000000000000e+00
9.900000000000e+02 0.000000000000e+00 2.350000000000e+01 2.461471485478e-08 -2.248553804785e-09 0.000000000000e+00
9.890000000000e+02 0.000000000000e+00 2.450000000000e+01 1.362720561509e-09 -2.487885936402e-09 0.000000000000e+00
9.900000000000e+02 0.000000000000e+00 2.450000000000e+01 1.371733761566e-09 -2.322558454218e-09 0.000000000000e+00
9.890000000000e+02 0.000000000000e+00 2.550000000000e+01 5.448635017666e-09 -2.531737180613e-09 0.000000000000e+00
9.900000000000e+02 0.000000000000e+00 2.550000000000e+01 5.520284588742e-09 -2.367645253005e-09 0.000000000000e+00
9.890000000000e+02 0.000000000000e+00 2.650000000000e+01 4.962053427779e-08 -2.925727249650e-09 0.000000000000e+00
9.900000000000e+02 0.000000000000e+00 2.650000000000e+01 5.035193029848e-08 -2.775580159675e-09 0.000000000000e+00
9.890000000000e+02 0.000000000000e+00 2.750000000000e+01 6.108400249107e-09 -3.329655838955e-09 0.000000000000e+00
9.900000000000e+02 0.000000000000e+00 2.750000000000e+01 6.200970526005e-09 -3.194469764991e-09 0.000000000000e+00
9.890000000000e+02 0.000000000000e+00 2.850000000000e+01 1.195382263473e-07 -4.338754751880e-09 0.000000000000e+00
9.900000000000e+02 0.000000000000e+00 2.850000000000e+01 1.215536647378e-07 -4.259144217613e-09 0.000000000000e+00
9.890000000000e+02 0.000000000000e+00 2.950000000000e+01 2.905326537294e-08 -5.535208991145e-09 0.000000000000e+00
9.900000000000e+02 0.000000000000e+00 2.950000000000e+01 2.954474977982e-08 -5.522097243805e-09 0.000000000000e+00
