 TITLE = "Profiles along polylines"
 VARIABLES = "DIST" "HEAD" "VELOCITY_X1" "VELOCITY_Y1" "VELOCITY_Z1" 
 ZONE T="TIME=0.000000000000e+00"
0.000000000000e+00 3.000000000000e+01 0.000000000000e+00 0.000000000000e+00 0.000000000000e+00 
1.000000000000e+00 3.000000000000e+01 0.000000000000e+00 0.000000000000e+00 0.000000000000e+00 
2.000000000000e+00 3.000000000000e+01 0.000000000000e+00 0.000000000000e+00 0.000000000000e+00 
3.000000000000e+00 3.000000000000e+01 0.000000000000e+00 0.000000000000e+00 0.000000000000e+00 
4.000000000000e+00 3.000000000000e+01 0.000000000000e+00 0.000000000000e+00 0.000000000000e+00 
5.000000000000e+00 3.000000000000e+01 0.000000000000e+00 0.000000000000e+00 0.000000000000e+00 
6.000000000000e+00 3.000000000000e+01 0.000000000000e+00 0.000000000000e+00 0.000000000000e+00 
7.000000000000e+00 3.000000000000e+01 0.000000000000e+00 0.000000000000e+00 0.000000000000e+00 
8.000000000000e+00 3.000000000000e+01 0.000000000000e+00 0.000000000000e+00 0.000000000000e+00 
9.000000000000e+00 3.000000000000e+01 0.000000000000e+00 0.000000000000e+00 0.000000000000e+00 
1.000000000000e+01 3.000000000000e+01 0.000000000000e+00 0.000000000000e+00 0.000000000000e+00 
1.100000000000e+01 3.000000000000e+01 0.000000000000e+00 0.000000000000e+00 0.000000000000e+00 
1.200000000000e+01 3.000000000000e+01 0.000000000000e+00 0.000000000000e+00 0.000000000000e+00 
1.300000000000e+01 3.000000000000e+01 0.000000000000e+00 0.000000000000e+00 0.000000000000e+00 
1.400000000000e+01 3.000000000000e+01 0.000000000000e+00 0.000000000000e+00 0.000000000000e+00 
1.500000000000e+01 3.000000000000e+01 0.000000000000e+00 0.000000000000e+00 0.000000000000e+00 
1.600000000000e+01 3.000000000000e+01 0.000000000000e+00 0.000000000000e+00 0.000000000000e+00 
1.700000000000e+01 3.000000000000e+01 0.000000000000e+00 0.000000000000e+00 0.000000000000e+00 
1.800000000000e+01 3.000000000000e+01 0.000000000000e+00 0.000000000000e+00 0.000000000000e+00 
1.900000000000e+01 3.000000000000e+01 0.000000000000e+00 0.000000000000e+00 0.000000000000e+00 
2.000000000000e+01 3.000000000000e+01 0.000000000000e+00 0.000000000000e+00 0.000000000000e+00 
2.100000000000e+01 3.000000000000e+01 0.000000000000e+00 0.000000000000e+00 0.000000000000e+00 
2.200000000000e+01 3.000000000000e+01 0.000000000000e+00 0.000000000000e+00 0.000000000000e+00 
2.300000000000e+01 3.000000000000e+01 0.000000000000e+00 0.000000000000e+00 0.000000000000e+00 
2.400000000000e+01 3.000000000000e+01 0.000000000000e+00 0.000000000000e+00 0.000000000000e+00 
2.500000000000e+01 3.000000000000e+01 0.000000000000e+00 0.000000000000e+00 0.000000000000e+00 
2.600000000000e+01 3.000000000000e+01 0.000000000000e+00 0.000000000000e+00 0.000000000000e+00 
2.700000000000e+01 3.000000000000e+01 0.000000000000e+00 0.000000000000e+00 0.000000000000e+00 
2.800000000000e+01 3.000000000000e+01 0.000000000000e+00 0.000000000000e+00 0.000000000000e+00 
2.900000000000e+01 3.000000000000e+01 0.000000000000e+00 0.000000000000e+00 0.000000000000e+00 
3.000000000000e+01 3.000000000000e+01 0.000000000000e+00 0.000000000000e+00 0.000000000000e+00 
 TITLE = "Profiles along polylines"
 VARIABLES = "DIST" "HEAD" "VELOCITY_X1" "VELOCITY_Y1" "VELOCITY_Z1" 
 ZONE T="TIME=1.797693134862e+308"
0.000000000000e+00 3.010276891895e+01 4.562214443389e-08 -2.233694042418e-11 0.000000000000e+00 
1.000000000000e+00 3.010276940342e+01 2.348254064340e-08 -3.383443276254e-11 0.000000000000e+00 
2.000000000000e+00 3.010280280684e+01 1.434496344823e-09 -4.603614210894e-11 0.000000000000e+00 
3.000000000000e+00 3.010283311866e+01 2.829174307588e-07 -1.859618548394e-10 0.000000000000e+00 
4.000000000000e+00 3.010283368899e+01 2.837753939306e-07 -4.648310289896e-10 0.000000000000e+00 
5.000000000000e+00 3.010301828344e+01 1.606523190827e-07 -6.846576465455e-10 0.000000000000e+00 
6.000000000000e+00 3.010302066488e+01 4.001840326755e-07 -9.645956815880e-10 0.000000000000e+00 
7.000000000000e+00 3.010302305572e+01 2.529648900429e-07 -1.290647815475e-09 0.000000000000e+00 
8.000000000000e+00 3.010308246044e+01 5.594982745872e-08 -1.444993630226e-09 0.000000000000e+00 
9.000000000000e+00 3.010309898988e+01 1.162948578031e-07 -1.531424297705e-09 0.000000000000e+00 
1.000000000000e+01 3.010310990260e+01 7.770901454964e-08 -1.628840621883e-09 0.000000000000e+00 
1.100000000000e+01 3.010325873833e+01 1.106560008233e-08 -1.673496535315e-09 0.000000000000e+00 
1.200000000000e+01 3.010340967881e+01 1.653901835800e-08 -1.687598524258e-09 0.000000000000e+00 
1.300000000000e+01 3.010348595485e+01 4.004541170803e-07 -1.902595211512e-09 0.000000000000e+00 
1.400000000000e+01 3.010348864051e+01 8.880159929649e-07 -2.567129235954e-09 0.000000000000e+00 
1.500000000000e+01 3.010349164929e+01 1.171187897819e-06 -3.629338804753e-09 0.000000000000e+00 
1.600000000000e+01 3.010349477057e+01 6.950519395481e-07 -4.592150187385e-09 0.000000000000e+00 
1.700000000000e+01 3.010360413635e+01 2.442728863769e-08 -4.963456096369e-09 0.000000000000e+00 
1.800000000000e+01 3.010485506702e+01 1.255088144212e-08 -4.983114046990e-09 0.000000000000e+00 
1.900000000000e+01 3.010508991117e+01 1.066939283235e-08 -4.996092543869e-09 0.000000000000e+00 
2.000000000000e+01 3.013225134022e+01 3.074179946797e-08 -5.042116692838e-09 0.000000000000e+00 
2.100000000000e+01 3.013233927903e+01 6.705102968518e-08 -5.169561919826e-09 0.000000000000e+00 
2.200000000000e+01 3.013241586958e+01 4.543804563732e-08 -5.316287290126e-09 0.000000000000e+00 
2.300000000000e+01 3.013273153332e+01 1.693860958300e-08 -5.397763202042e-09 0.000000000000e+00 
2.400000000000e+01 3.013309541562e+01 8.337308883812e-09 -5.430886076226e-09 0.000000000000e+00 
2.500000000000e+01 3.013978890168e+01 1.997355879041e-09 -5.444597420511e-09 0.000000000000e+00 
2.600000000000e+01 3.014164986394e+01 1.545253268552e-08 -5.469028800393e-09 0.000000000000e+00 
2.700000000000e+01 3.014186136454e+01 1.559002531201e-08 -5.512587408624e-09 0.000000000000e+00 
2.800000000000e+01 3.014360204743e+01 3.439146876037e-08 -5.583205832448e-09 0.000000000000e+00 
2.900000000000e+01 3.014369432620e+01 4.062969870539e-08 -5.689516820202e-09 0.000000000000e+00 
3.000000000000e+01 3.014408201223e+01 1.588045787448e-08 -5.747099490977e-09 0.000000000000e+00 
