 TITLE = "Profiles along polylines"
 VARIABLES = "DIST" "HEAD" "VELOCITY_X1" "VELOCITY_Y1" "VELOCITY_Z1" 
 ZONE T="TIME=0.000000000000e+00"
0.000000000000e+00 3.000000000000e+01 0.000000000000e+00 0.000000000000e+00 0.000000000000e+00 
1.000000000000e+00 3.000000000000e+01 0.000000000000e+00 0.000000000000e+00 0.000000000000e+00 
2.000000000000e+00 3.000000000000e+01 0.000000000000e+00 0.000000000000e+00 0.000000000000e+00 
3.000000000000e+00 3.000000000000e+01 0.000000000000e+00 0.000000000000e+00 0.000000000000e+00 
4.000000000000e+00 3.000000000000e+01 0.000000000000e+00 0.000000000000e+00 0.000000000000e+00 
5.000000000000e+00 3.000000000000e+01 0.000000000000e+00 0.000000000000e+00 0.000000000000e+00 
6.000000000000e+00 3.000000000000e+01 0.000000000000e+00 0.000000000000e+00 0.000000000000e+00 
7.000000000000e+00 3.000000000000e+01 0.000000000000e+00 0.000000000000e+00 0.000000000000e+00 
8.000000000000e+00 3.000000000000e+01 0.000000000000e+00 0.000000000000e+00 0.000000000000e+00 
9.000000000000e+00 3.000000000000e+01 0.000000000000e+00 0.000000000000e+00 0.000000000000e+00 
1.000000000000e+01 3.000000000000e+01 0.000000000000e+00 0.000000000000e+00 0.000000000000e+00 
1.100000000000e+01 3.000000000000e+01 0.000000000000e+00 0.000000000000e+00 0.000000000000e+00 
1.200000000000e+01 3.000000000000e+01 0.000000000000e+00 0.000000000000e+00 0.000000000000e+00 
1.300000000000e+01 3.000000000000e+01 0.000000000000e+00 0.000000000000e+00 0.000000000000e+00 
1.400000000000e+01 3.000000000000e+01 0.000000000000e+00 0.000000000000e+00 0.000000000000e+00 
1.500000000000e+01 3.000000000000e+01 0.000000000000e+00 0.000000000000e+00 0.000000000000e+00 
1.600000000000e+01 3.000000000000e+01 0.000000000000e+00 0.000000000000e+00 0.000000000000e+00 
1.700000000000e+01 3.000000000000e+01 0.000000000000e+00 0.000000000000e+00 0.000000000000e+00 
1.800000000000e+01 3.000000000000e+01 0.000000000000e+00 0.000000000000e+00 0.000000000000e+00 
1.900000000000e+01 3.000000000000e+01 0.000000000000e+00 0.000000000000e+00 0.000000000000e+00 
2.000000000000e+01 3.000000000000e+01 0.000000000000e+00 0.000000000000e+00 0.000000000000e+00 
2.100000000000e+01 3.000000000000e+01 0.000000000000e+00 0.000000000000e+00 0.000000000000e+00 
2.200000000000e+01 3.000000000000e+01 0.000000000000e+00 0.000000000000e+00 0.000000000000e+00 
2.300000000000e+01 3.000000000000e+01 0.000000000000e+00 0.000000000000e+00 0.000000000000e+00 
2.400000000000e+01 3.000000000000e+01 0.000000000000e+00 0.000000000000e+00 0.000000000000e+00 
2.500000000000e+01 3.000000000000e+01 0.000000000000e+00 0.000000000000e+00 0.000000000000e+00 
2.600000000000e+01 3.000000000000e+01 0.000000000000e+00 0.000000000000e+00 0.000000000000e+00 
2.700000000000e+01 3.000000000000e+01 0.000000000000e+00 0.000000000000e+00 0.000000000000e+00 
2.800000000000e+01 3.000000000000e+01 0.000000000000e+00 0.000000000000e+00 0.000000000000e+00 
2.900000000000e+01 3.000000000000e+01 0.000000000000e+00 0.000000000000e+00 0.000000000000e+00 
3.000000000000e+01 3.000000000000e+01 0.000000000000e+00 0.000000000000e+00 0.000000000000e+00 
 TITLE = "Profiles along polylines"
 VARIABLES = "DIST" "HEAD" "VELOCITY_X1" "VELOCITY_Y1" "VELOCITY_Z1" 
 ZONE T="TIME=1.797693134862e+308"
0.000000000000e+00 3.001049492924e+01 4.836388663955e-08 -3.599486357738e-12 0.000000000000e+00 
1.000000000000e+00 3.001049500731e+01 2.489390540410e-08 -5.452572367363e-12 0.000000000000e+00 
2.000000000000e+00 3.001050039058e+01 1.521305648505e-09 -7.420608295899e-12 0.000000000000e+00 
3.000000000000e+00 3.001050527750e+01 3.001443520891e-07 -3.051981293360e-11 0.000000000000e+00 
4.000000000000e+00 3.001050537134e+01 3.010566257468e-07 -7.656392958439e-11 0.000000000000e+00 
5.000000000000e+00 3.001053579425e+01 1.708155290297e-07 -1.138988723814e-10 0.000000000000e+00 
6.000000000000e+00 3.001053619334e+01 4.255130510549e-07 -1.637756368531e-10 0.000000000000e+00 
7.000000000000e+00 3.001053660273e+01 2.689841152187e-07 -2.219124083743e-10 0.000000000000e+00 
8.000000000000e+00 3.001054685110e+01 5.953852542275e-08 -2.496070382180e-10 0.000000000000e+00 
9.000000000000e+00 3.001054970991e+01 1.237806453757e-07 -2.655936519298e-10 0.000000000000e+00 
1.000000000000e+01 3.001055160731e+01 8.272283658231e-08 -2.837021098254e-10 0.000000000000e+00 
1.100000000000e+01 3.001057757367e+01 1.180251121634e-08 -2.921129140242e-10 0.000000000000e+00 
1.200000000000e+01 3.001060393408e+01 1.767523866635e-08 -2.950714581152e-10 0.000000000000e+00 
1.300000000000e+01 3.001061728626e+01 4.283920039911e-07 -3.429402823513e-10 0.000000000000e+00 
1.400000000000e+01 3.001061778157e+01 9.500045866053e-07 -4.912576152351e-10 0.000000000000e+00 
1.500000000000e+01 3.001061837189e+01 1.253000659277e-06 -7.287910303331e-10 0.000000000000e+00 
1.600000000000e+01 3.001061900894e+01 7.436414442058e-07 -9.445764469661e-10 0.000000000000e+00 
1.700000000000e+01 3.001064165419e+01 2.618130659156e-08 -1.028276126452e-09 0.000000000000e+00 
1.800000000000e+01 3.001090094514e+01 1.372395867979e-08 -1.035077546032e-09 0.000000000000e+00 
1.900000000000e+01 3.001094982898e+01 1.170999800940e-08 -1.042123563066e-09 0.000000000000e+00 
2.000000000000e+01 3.001662711218e+01 4.735159172930e-08 -1.160699502061e-09 0.000000000000e+00 
2.100000000000e+01 3.001664918905e+01 1.033839204356e-07 -1.528765663154e-09 0.000000000000e+00 
2.200000000000e+01 3.001667514672e+01 7.013994554768e-08 -1.955339464362e-09 0.000000000000e+00 
2.300000000000e+01 3.001680016573e+01 2.628842833344e-08 -2.198513478644e-09 0.000000000000e+00 
2.400000000000e+01 3.001695243534e+01 1.302285206787e-08 -2.305197164368e-09 0.000000000000e+00 
2.500000000000e+01 3.001983357027e+01 3.491717651924e-09 -2.364857484267e-09 0.000000000000e+00 
2.600000000000e+01 3.002064914844e+01 2.780146159457e-08 -2.590574802650e-09 0.000000000000e+00 
2.700000000000e+01 3.002075676547e+01 2.813139739324e-08 -3.002455352392e-09 0.000000000000e+00 
2.800000000000e+01 3.002176670857e+01 6.340801954346e-08 -3.740024564928e-09 0.000000000000e+00 
2.900000000000e+01 3.002183665494e+01 7.495845664929e-08 -4.896331600729e-09 0.000000000000e+00 
3.000000000000e+01 3.002220927193e+01 2.931112068575e-08 -5.523714368550e-09 0.000000000000e+00 
