VARIABLES = "X","Y","Z",VELOCITY1_X,VELOCITY1_Y,VELOCITY1_Z
ZONE T="0.000000000000e+00s", 
0.000000000000e+00 0.000000000000e+00 5.000000000000e-01 0.000000000000e+00 0.000000000000e+00 0.000000000000e+00
0.000000000000e+00 0.000000000000e+00 1.500000000000e+00 0.000000000000e+00 0.000000000000e+00 0.000000000000e+00
0.000000000000e+00 0.000000000000e+00 2.500000000000e+00 0.000000000000e+00 0.000000000000e+00 0.000000000000e+00
0.000000000000e+00 0.000000000000e+00 3.500000000000e+00 0.000000000000e+00 0.000000000000e+00 0.000000000000e+00
0.000000000000e+00 0.000000000000e+00 4.500000000000e+00 0.000000000000e+00 0.000000000000e+00 0.000000000000e+00
0.000000000000e+00 0.000000000000e+00 5.500000000000e+00 0.000000000000e+00 0.000000000000e+00 0.000000000000e+00
0.000000000000e+00 0.000000000000e+00 6.500000000000e+00 0.000000000000e+00 0.000000000000e+00 0.000000000000e+00
0.000000000000e+00 0.000000000000e+00 7.500000000000e+00 0.000000000000e+00 0.000000000000e+00 0.000000000000e+00
0.000000000000e+00 0.000000000000e+00 8.500000000000e+00 0.000000000000e+00 0.000000000000e+00 0.000000000000e+00
0.000000000000e+00 0.000000000000e+00 9.500000000000e+00 0.000000000000e+00 0.000000000000e+00 0.000000000000e+00
0.000000000000e+00 0.000000000000e+00 1.050000000000e+01 0.000000000000e+00 0.000000000000e+00 0.000000000000e+00
0.000000000000e+00 0.000000000000e+00 1.150000000000e+01 0.000000000000e+00 0.000000000000e+00 0.000000000000e+00
0.000000000000e+00 0.000000000000e+00 1.250000000000e+01 0.000000000000e+00 0.000000000000e+00 0.000000000000e+00
0.000000000000e+00 0.000000000000e+00 1.350000000000e+01 0.000000000000e+00 0.000000000000e+00 0.000000000000e+00
0.000000000000e+00 0.000000000000e+00 1.450000000000e+01 0.000000000000e+00 0.000000000000e+00 0.000000000000e+00
0.000000000000e+00 0.000000000000e+00 1.550000000000e+01 0.000000000000e+00 0.000000000000e+00 0.000000000000e+00
0.000000000000e+00 0.000000000000e+00 1.650000000000e+01 0.000000000000e+00 0.000000000000e+00 0.000000000000e+00
0.000000000000e+00 0.000000000000e+00 1.750000000000e+01 0.000000000000e+00 0.000000000000e+00 0.000000000000e+00
0.000000000000e+00 0.000000000000e+00 1.850000000000e+01 0.000000000000e+00 0.000000000000e+00 0.000000000000e+00
0.000000000000e+00 0.000000000000e+00 1.950000000000e+01 0.000000000000e+00 0.000000000000e+00 0.000000000000e+00
0.000000000000e+00 0.000000000000e+00 2.050000000000e+01 0.000000000000e+00 0.000000000000e+00 0.000000000000e+00
0.000000000000e+00 0.000000000000e+00 2.150000000000e+01 0.000000000000e+00 0.000000000000e+00 0.000000000000e+00
0.000000000000e+00 0.000000000000e+00 2.250000000000e+01 0.000000000000e+00 0.000000000000e+00 0.000000000000e+00
0.000000000000e+00 0.000000000000e+00 2.350000000000e+01 0.000000000000e+00 0.000000000000e+00 0.000000000000e+00
0.000000000000e+00 0.000000000000e+00 2.450000000000e+01 0.000000000000e+00 0.000000000000e+00 0.000000000000e+00
0.000000000000e+00 0.000000000000e+00 2.550000000000e+01 0.000000000000e+00 0.000000000000e+00 0.000000000000e+00
0.000000000000e+00 0.000000000000e+00 2.650000000000e+01 0.000000000000e+00 0.000000000000e+00 0.000000000000e+00
0.000000000000e+00 0.000000000000e+00 2.750000000000e+01 0.000000000000e+00 0.000000000000e+00 0.000000000000e+00
0.000000000000e+00 0.000000000000e+00 2.850000000000e+01 0.000000000000e+00 0.000000000000e+00 0.000000000000e+00
0.000000000000e+00 0.000000000000e+00 2.950000000000e+01 0.000000000000e+00 0.000000000000e+00 0.000000000000e+00
VARIABLES = "X","Y","Z",VELOCITY1_X,VELOCITY1_Y,VELOCITY1_Z
ZONE T="1.797693134862e+308s", 
0.000000000000e+00 0.000000000000e+00 5.000000000000e-01 2.548564380794e-11 -2.548525952861e-11 0.000000000000e+00
0.000000000000e+00 0.000000000000e+00 1.500000000000e+00 7.501309492829e-13 -5.172333277125e-11 0.000000000000e+00
0.000000000000e+00 0.000000000000e+00 2.500000000000e+00 8.523300856800e-13 -5.332594193974e-11 0.000000000000e+00
0.000000000000e+00 0.000000000000e+00 3.500000000000e+00 3.151663988864e-10 -3.693400587464e-10 0.000000000000e+00
0.000000000000e+00 0.000000000000e+00 4.500000000000e+00 1.810037891667e-12 -6.863443914891e-10 0.000000000000e+00
0.000000000000e+00 0.000000000000e+00 5.500000000000e+00 1.775275966319e-10 -8.656813649150e-10 0.000000000000e+00
0.000000000000e+00 0.000000000000e+00 6.500000000000e+00 2.691942690908e-10 -1.312417374602e-09 0.000000000000e+00
0.000000000000e+00 0.000000000000e+00 7.500000000000e+00 1.318421400072e-11 -1.594825534131e-09 0.000000000000e+00
0.000000000000e+00 0.000000000000e+00 8.500000000000e+00 4.925963591609e-11 -1.657271124313e-09 0.000000000000e+00
0.000000000000e+00 0.000000000000e+00 9.500000000000e+00 8.052696195111e-11 -1.787061285322e-09 0.000000000000e+00
0.000000000000e+00 0.000000000000e+00 1.050000000000e+01 6.194135817687e-12 -1.873790483512e-09 0.000000000000e+00
0.000000000000e+00 0.000000000000e+00 1.150000000000e+01 6.148979566824e-12 -1.886134402183e-09 0.000000000000e+00
0.000000000000e+00 0.000000000000e+00 1.250000000000e+01 1.229116142060e-11 -1.904575070608e-09 0.000000000000e+00
0.000000000000e+00 0.000000000000e+00 1.350000000000e+01 4.340949760574e-10 -2.350959586911e-09 0.000000000000e+00
0.000000000000e+00 0.000000000000e+00 1.450000000000e+01 5.557614391801e-10 -3.340856506657e-09 0.000000000000e+00
0.000000000000e+00 0.000000000000e+00 1.550000000000e+01 7.497201419240e-10 -4.646397471548e-09 0.000000000000e+00
0.000000000000e+00 0.000000000000e+00 1.650000000000e+01 2.502150712711e-11 -5.421214344869e-09 0.000000000000e+00
0.000000000000e+00 0.000000000000e+00 1.750000000000e+01 2.198777935878e-12 -5.448437456089e-09 0.000000000000e+00
0.000000000000e+00 0.000000000000e+00 1.850000000000e+01 1.174524618195e-11 -5.462381455100e-09 0.000000000000e+00
0.000000000000e+00 0.000000000000e+00 1.950000000000e+01 1.017943680612e-13 -5.474229439581e-09 0.000000000000e+00
0.000000000000e+00 0.000000000000e+00 2.050000000000e+01 3.194484052632e-11 -5.506275928853e-09 0.000000000000e+00
0.000000000000e+00 0.000000000000e+00 2.150000000000e+01 3.793949638415e-11 -5.576162188580e-09 0.000000000000e+00
0.000000000000e+00 0.000000000000e+00 2.250000000000e+01 9.412971586623e-12 -5.623517763078e-09 0.000000000000e+00
0.000000000000e+00 0.000000000000e+00 2.350000000000e+01 8.233045386934e-12 -5.641164541151e-09 0.000000000000e+00
0.000000000000e+00 0.000000000000e+00 2.450000000000e+01 4.493854465389e-13 -5.649847424936e-09 0.000000000000e+00
0.000000000000e+00 0.000000000000e+00 2.550000000000e+01 1.618009730619e-12 -5.651914851423e-09 0.000000000000e+00
0.000000000000e+00 0.000000000000e+00 2.650000000000e+01 1.434991453149e-11 -5.667882753846e-09 0.000000000000e+00
0.000000000000e+00 0.000000000000e+00 2.750000000000e+01 1.757454432540e-12 -5.683991008358e-09 0.000000000000e+00
0.000000000000e+00 0.000000000000e+00 2.850000000000e+01 3.373564967959e-11 -5.719484039252e-09 0.000000000000e+00
0.000000000000e+00 0.000000000000e+00 2.950000000000e+01 8.193973456800e-12 -5.761415597695e-09 0.000000000000e+00
