 TITLE = "Profiles along polylines"
 VARIABLES = "DIST" "HEAD" "VELOCITY_X1" "VELOCITY_Y1" "VELOCITY_Z1" 
 ZONE T="TIME=0.000000000000e+00"
0.000000000000e+00 3.000000000000e+01 0.000000000000e+00 0.000000000000e+00 0.000000000000e+00 
1.000000000000e+00 3.000000000000e+01 0.000000000000e+00 0.000000000000e+00 0.000000000000e+00 
2.000000000000e+00 3.000000000000e+01 0.000000000000e+00 0.000000000000e+00 0.000000000000e+00 
3.000000000000e+00 3.000000000000e+01 0.000000000000e+00 0.000000000000e+00 0.000000000000e+00 
4.000000000000e+00 3.000000000000e+01 0.000000000000e+00 0.000000000000e+00 0.000000000000e+00 
5.000000000000e+00 3.000000000000e+01 0.000000000000e+00 0.000000000000e+00 0.000000000000e+00 
6.000000000000e+00 3.000000000000e+01 0.000000000000e+00 0.000000000000e+00 0.000000000000e+00 
7.000000000000e+00 3.000000000000e+01 0.000000000000e+00 0.000000000000e+00 0.000000000000e+00 
8.000000000000e+00 3.000000000000e+01 0.000000000000e+00 0.000000000000e+00 0.000000000000e+00 
9.000000000000e+00 3.000000000000e+01 0.000000000000e+00 0.000000000000e+00 0.000000000000e+00 
1.000000000000e+01 3.000000000000e+01 0.000000000000e+00 0.000000000000e+00 0.000000000000e+00 
1.100000000000e+01 3.000000000000e+01 0.000000000000e+00 0.000000000000e+00 0.000000000000e+00 
1.200000000000e+01 3.000000000000e+01 0.000000000000e+00 0.000000000000e+00 0.000000000000e+00 
1.300000000000e+01 3.000000000000e+01 0.000000000000e+00 0.000000000000e+00 0.000000000000e+00 
1.400000000000e+01 3.000000000000e+01 0.000000000000e+00 0.000000000000e+00 0.000000000000e+00 
1.500000000000e+01 3.000000000000e+01 0.000000000000e+00 0.000000000000e+00 0.000000000000e+00 
1.600000000000e+01 3.000000000000e+01 0.000000000000e+00 0.000000000000e+00 0.000000000000e+00 
1.700000000000e+01 3.000000000000e+01 0.000000000000e+00 0.000000000000e+00 0.000000000000e+00 
1.800000000000e+01 3.000000000000e+01 0.000000000000e+00 0.000000000000e+00 0.000000000000e+00 
1.900000000000e+01 3.000000000000e+01 0.000000000000e+00 0.000000000000e+00 0.000000000000e+00 
2.000000000000e+01 3.000000000000e+01 0.000000000000e+00 0.000000000000e+00 0.000000000000e+00 
2.100000000000e+01 3.000000000000e+01 0.000000000000e+00 0.000000000000e+00 0.000000000000e+00 
2.200000000000e+01 3.000000000000e+01 0.000000000000e+00 0.000000000000e+00 0.000000000000e+00 
2.300000000000e+01 3.000000000000e+01 0.000000000000e+00 0.000000000000e+00 0.000000000000e+00 
2.400000000000e+01 3.000000000000e+01 0.000000000000e+00 0.000000000000e+00 0.000000000000e+00 
2.500000000000e+01 3.000000000000e+01 0.000000000000e+00 0.000000000000e+00 0.000000000000e+00 
2.600000000000e+01 3.000000000000e+01 0.000000000000e+00 0.000000000000e+00 0.000000000000e+00 
2.700000000000e+01 3.000000000000e+01 0.000000000000e+00 0.000000000000e+00 0.000000000000e+00 
2.800000000000e+01 3.000000000000e+01 0.000000000000e+00 0.000000000000e+00 0.000000000000e+00 
2.900000000000e+01 3.000000000000e+01 0.000000000000e+00 0.000000000000e+00 0.000000000000e+00 
3.000000000000e+01 3.000000000000e+01 0.000000000000e+00 0.000000000000e+00 0.000000000000e+00 
 TITLE = "Profiles along polylines"
 VARIABLES = "DIST" "HEAD" "VELOCITY_X1" "VELOCITY_Y1" "VELOCITY_Z1" 
 ZONE T="TIME=1.797693134862e+308"
0.000000000000e+00 3.054036738188e+01 7.496534248644e-08 -7.496829933010e-10 0.000000000000e+00 
1.000000000000e+00 3.054036793461e+01 3.820009636134e-08 -1.131771892789e-09 0.000000000000e+00 
2.000000000000e+00 3.054042624823e+01 8.273560885846e-10 -1.522135955042e-09 0.000000000000e+00 
3.000000000000e+00 3.054081097190e+01 1.796550933173e-09 -1.548377385893e-09 0.000000000000e+00 
4.000000000000e+00 3.054083663631e+01 2.098238461010e-09 -1.587330270227e-09 0.000000000000e+00 
5.000000000000e+00 3.054094461505e+01 2.819714891622e-08 -1.890300278660e-09 0.000000000000e+00 
6.000000000000e+00 3.054094677558e+01 2.787339601681e-08 -2.451080203087e-09 0.000000000000e+00 
7.000000000000e+00 3.054180536606e+01 1.103334511978e-10 -2.730980261659e-09 0.000000000000e+00 
8.000000000000e+00 3.054516584397e+01 6.369772012686e-10 -2.738453810007e-09 0.000000000000e+00 
9.000000000000e+00 3.054528928385e+01 2.231738502324e-08 -2.968007408724e-09 0.000000000000e+00 
1.000000000000e+01 3.054529334740e+01 2.297704910091e-08 -3.421006503298e-09 0.000000000000e+00 
1.100000000000e+01 3.054537253038e+01 1.933348658379e-09 -3.670158121487e-09 0.000000000000e+00 
1.200000000000e+01 3.054552721104e+01 6.642647028492e-10 -3.696137526133e-09 0.000000000000e+00 
1.300000000000e+01 3.056563334900e+01 1.576324636042e-08 -3.860417975544e-09 0.000000000000e+00 
1.400000000000e+01 3.056564039613e+01 1.634541734481e-08 -4.181523034133e-09 0.000000000000e+00 
1.500000000000e+01 3.056584488057e+01 8.947125090879e-10 -4.353938636748e-09 0.000000000000e+00 
1.600000000000e+01 3.056623707322e+01 1.558558794111e-09 -4.378472455157e-09 0.000000000000e+00 
1.700000000000e+01 3.056633414081e+01 1.721763771522e-09 -4.411277400124e-09 0.000000000000e+00 
1.800000000000e+01 3.056659418967e+01 5.611604445444e-10 -4.434108175521e-09 0.000000000000e+00 
1.900000000000e+01 3.056794998216e+01 4.002183523201e-10 -4.443722454332e-09 0.000000000000e+00 
2.000000000000e+01 3.056834688166e+01 7.194216418271e-10 -4.454919348370e-09 0.000000000000e+00 
2.100000000000e+01 3.056864788554e+01 2.006949113372e-09 -4.482184233198e-09 0.000000000000e+00 
2.200000000000e+01 3.056872579034e+01 1.505707400284e-08 -4.652830776414e-09 0.000000000000e+00 
2.300000000000e+01 3.056873565347e+01 1.748621615712e-08 -4.978281090567e-09 0.000000000000e+00 
2.400000000000e+01 3.056877102574e+01 4.107285317766e-09 -5.194230722774e-09 0.000000000000e+00 
2.500000000000e+01 3.057055954474e+01 8.957244362786e-09 -5.324881355288e-09 0.000000000000e+00 
2.600000000000e+01 3.057057640353e+01 8.913850914976e-09 -5.503601359367e-09 0.000000000000e+00 
2.700000000000e+01 3.057469749203e+01 1.934508618298e-09 -5.612091941887e-09 0.000000000000e+00 
2.800000000000e+01 3.057477953807e+01 4.359999090062e-09 -5.675039915676e-09 0.000000000000e+00 
2.900000000000e+01 3.057484370847e+01 2.505615340749e-09 -5.743700078702e-09 0.000000000000e+00 
3.000000000000e+01 3.057858483415e+01 8.523460011137e-11 -5.768757927639e-09 0.000000000000e+00 
