VARIABLES = "X","Y","Z",VELOCITY1_X,VELOCITY1_Y,VELOCITY1_Z
ZONE T="0.000000000000e+00s", 
9.890000000000e+02 0.000000000000e+00 5.000000000000e-01 0.000000000000e+00 0.000000000000e+00 0.000000000000e+00
9.900000000000e+02 0.000000000000e+00 5.000000000000e-01 0.000000000000e+00 0.000000000000e+00 0.000000000000e+00
9.890000000000e+02 0.000000000000e+00 1.500000000000e+00 0.000000000000e+00 0.000000000000e+00 0.000000000000e+00
9.900000000000e+02 0.000000000000e+00 1.500000000000e+00 0.000000000000e+00 0.000000000000e+00 0.000000000000e+00
9.890000000000e+02 0.000000000000e+00 2.500000000000e+00 0.000000000000e+00 0.000000000000e+00 0.000000000000e+00
9.900000000000e+02 0.000000000000e+00 2.500000000000e+00 0.000000000000e+00 0.000000000000e+00 0.000000000000e+00
9.890000000000e+02 0.000000000000e+00 3.500000000000e+00 0.000000000000e+00 0.000000000000e+00 0.000000000000e+00
9.900000000000e+02 0.000000000000e+00 3.500000000000e+00 0.000000000000e+00 0.000000000000e+00 0.000000000000e+00
9.890000000000e+02 0.000000000000e+00 4.500000000000e+00 0.000000000000e+00 0.000000000000e+00 0.000000000000e+00
9.900000000000e+02 0.000000000000e+00 4.500000000000e+00 0.000000000000e+00 0.000000000000e+00 0.000000000000e+00
9.890000000000e+02 0.000000000000e+00 5.500000000000e+00 0.000000000000e+00 0.000000000000e+00 0.000000000000e+00
9.900000000000e+02 0.000000000000e+00 5.500000000000e+00 0.000000000000e+00 0.000000000000e+00 0.000000000000e+00
9.890000000000e+02 0.000000000000e+00 6.500000000000e+00 0.000000000000e+00 0.000000000000e+00 0.000000000000e+00
9.900000000000e+02 0.000000000000e+00 6.500000000000e+00 0.000000000000e+00 0.000000000000e+00 0.000000000000e+00
9.890000000000e+02 0.000000000000e+00 7.500000000000e+00 0.000000000000e+00 0.000000000000e+00 0.000000000000e+00
9.900000000000e+02 0.000000000000e+00 7.500000000000e+00 0.000000000000e+00 0.000000000000e+00 0.000000000000e+00
9.890000000000e+02 0.000000000000e+00 8.500000000000e+00 0.000000000000e+00 0.000000000000e+00 0.000000000000e+00
9.900000000000e+02 0.000000000000e+00 8.500000000000e+00 0.000000000000e+00 0.000000000000e+00 0.000000000000e+00
9.890000000000e+02 0.000000000000e+00 9.500000000000e+00 0.000000000000e+00 0.000000000000e+00 0.000000000000e+00
9.900000000000e+02 0.000000000000e+00 9.500000000000e+00 0.000000000000e+00 0.000000000000e+00 0.000000000000e+00
9.890000000000e+02 0.000000000000e+00 1.050000000000e+01 0.000000000000e+00 0.000000000000e+00 0.000000000000e+00
9.900000000000e+02 0.000000000000e+00 1.050000000000e+01 0.000000000000e+00 0.000000000000e+00 0.000000000000e+00
9.890000000000e+02 0.000000000000e+00 1.150000000000e+01 0.000000000000e+00 0.000000000000e+00 0.000000000000e+00
9.900000000000e+02 0.000000000000e+00 1.150000000000e+01 0.000000000000e+00 0.000000000000e+00 0.000000000000e+00
9.890000000000e+02 0.000000000000e+00 1.250000000000e+01 0.000000000000e+00 0.000000000000e+00 0.000000000000e+00
9.900000000000e+02 0.000000000000e+00 1.250000000000e+01 0.000000000000e+00 0.000000000000e+00 0.000000000000e+00
9.890000000000e+02 0.000000000000e+00 1.350000000000e+01 0.000000000000e+00 0.000000000000e+00 0.000000000000e+00
9.900000000000e+02 0.000000000000e+00 1.350000000000e+01 0.000000000000e+00 0.000000000000e+00 0.000000000000e+00
9.890000000000e+02 0.000000000000e+00 1.450000000000e+01 0.000000000000e+00 0.000000000000e+00 0.000000000000e+00
9.900000000000e+02 0.000000000000e+00 1.450000000000e+01 0.000000000000e+00 0.000000000000e+00 0.000000000000e+00
9.890000000000e+02 0.000000000000e+00 1.550000000000e+01 0.000000000000e+00 0.000000000000e+00 0.000000000000e+00
9.900000000000e+02 0.000000000000e+00 1.550000000000e+01 0.000000000000e+00 0.000000000000e+00 0.000000000000e+00
9.890000000000e+02 0.000000000000e+00 1.650000000000e+01 0.000000000000e+00 0.000000000000e+00 0.000000000000e+00
9.900000000000e+02 0.000000000000e+00 1.650000000000e+01 0.000000000000e+00 0.000000000000e+00 0.000000000000e+00
9.890000000000e+02 0.000000000000e+00 1.750000000000e+01 0.000000000000e+00 0.000000000000e+00 0.000000000000e+00
9.900000000000e+02 0.000000000000e+00 1.750000000000e+01 0.000000000000e+00 0.000000000000e+00 0.000000000000e+00
9.890000000000e+02 0.000000000000e+00 1.850000000000e+01 0.000000000000e+00 0.000000000000e+00 0.000000000000e+00
9.900000000000e+02 0.000000000000e+00 1.850000000000e+01 0.000000000000e+00 0.000000000000e+00 0.000000000000e+00
9.890000000000e+02 0.000000000000e+00 1.950000000000e+01 0.000000000000e+00 0.000000000000e+00 0.000000000000e+00
9.900000000000e+02 0.000000000000e+00 1.950000000000e+01 0.000000000000e+00 0.000000000000e+00 0.000000000000e+00
9.890000000000e+02 0.000000000000e+00 2.050000000000e+01 0.000000000000e+00 0.000000000000e+00 0.000000000000e+00
9.900000000000e+02 0.000000000000e+00 2.050000000000e+01 0.000000000000e+00 0.000000000000e+00 0.000000000000e+00
9.890000000000e+02 0.000000000000e+00 2.150000000000e+01 0.000000000000e+00 0.000000000000e+00 0.000000000000e+00
9.900000000000e+02 0.000000000000e+00 2.150000000000e+01 0.000000000000e+00 0.000000000000e+00 0.000000000000e+00
9.890000000000e+02 0.000000000000e+00 2.250000000000e+01 0.000000000000e+00 0.000000000000e+00 0.000000000000e+00
9.900000000000e+02 0.000000000000e+00 2.250000000000e+01 0.000000000000e+00 0.000000000000e+00 0.000000000000e+00
9.890000000000e+02 0.000000000000e+00 2.350000000000e+01 0.000000000000e+00 0.000000000000e+00 0.000000000000e+00
9.900000000000e+02 0.000000000000e+00 2.350000000000e+01 0.000000000000e+00 0.000000000000e+00 0.000000000000e+00
9.890000000000e+02 0.000000000000e+00 2.450000000000e+01 0.000000000000e+00 0.000000000000e+00 0.000000000000e+00
9.900000000000e+02 0.000000000000e+00 2.450000000000e+01 0.000000000000e+00 0.000000000000e+00 0.000000000000e+00
9.890000000000e+02 0.000000000000e+00 2.550000000000e+01 0.000000000000e+00 0.000000000000e+00 0.000000000000e+00
9.900000000000e+02 0.000000000000e+00 2.550000000000e+01 0.000000000000e+00 0.000000000000e+00 0.000000000000e+00
9.890000000000e+02 0.000000000000e+00 2.650000000000e+01 0.000000000000e+00 0.000000000000e+00 0.000000000000e+00
9.900000000000e+02 0.000000000000e+00 2.650000000000e+01 0.000000000000e+00 0.000000000000e+00 0.000000000000e+00
9.890000000000e+02 0.000000000000e+00 2.750000000000e+01 0.000000000000e+00 0.000000000000e+00 0.000000000000e+00
9.900000000000e+02 0.000000000000e+00 2.750000000000e+01 0.000000000000e+00 0.000000000000e+00 0.000000000000e+00
9.890000000000e+02 0.000000000000e+00 2.850000000000e+01 0.000000000000e+00 0.000000000000e+00 0.000000000000e+00
9.900000000000e+02 0.000000000000e+00 2.850000000000e+01 0.000000000000e+00 0.000000000000e+00 0.000000000000e+00
9.890000000000e+02 0.000000000000e+00 2.950000000000e+01 0.000000000000e+00 0.000000000000e+00 0.000000000000e+00
9.900000000000e+02 0.000000000000e+00 2.950000000000e+01 0.000000000000e+00 0.000000000000e+00 0.000000000000e+00
VARIABLES = "X","Y","Z",VELOCITY1_X,VELOCITY1_Y,VELOCITY1_Z
ZONE T="1.797693134862e+308s", 
9.890000000000e+02 0.000000000000e+00 5.000000000000e-01 1.342482038659e-06 -5.894279988311e-11 0.000000000000e+00
9.900000000000e+02 0.000000000000e+00 5.000000000000e-01 1.342590360515e-06 -5.355488752348e-11 0.000000000000e+00
9.890000000000e+02 0.000000000000e+00 1.500000000000e+00 2.569666163365e-08 -1.190178110391e-10 0.000000000000e+00
9.900000000000e+02 0.000000000000e+00 1.500000000000e+00 2.569873678432e-08 -1.081386258903e-10 0.000000000000e+00
9.890000000000e+02 0.000000000000e+00 2.500000000000e+00 3.940213155570e-09 -1.203285274896e-10 0.000000000000e+00
9.900000000000e+02 0.000000000000e+00 2.500000000000e+00 3.940534953080e-09 -1.093295546047e-10 0.000000000000e+00
9.890000000000e+02 0.000000000000e+00 3.500000000000e+00 6.060376121037e-08 -1.233119347742e-10 0.000000000000e+00
9.900000000000e+02 0.000000000000e+00 3.500000000000e+00 6.060891076281e-08 -1.120406139921e-10 0.000000000000e+00
9.890000000000e+02 0.000000000000e+00 4.500000000000e+00 1.479405266546e-08 -1.268071132653e-10 0.000000000000e+00
9.900000000000e+02 0.000000000000e+00 4.500000000000e+00 1.479531473099e-08 -1.152167161230e-10 0.000000000000e+00
9.890000000000e+02 0.000000000000e+00 5.500000000000e+00 9.993401486221e-07 -1.743916971664e-10 0.000000000000e+00
9.900000000000e+02 0.000000000000e+00 5.500000000000e+00 9.994263340277e-07 -1.584588044980e-10 0.000000000000e+00
9.890000000000e+02 0.000000000000e+00 6.500000000000e+00 3.162514544351e-09 -2.214431836905e-10 0.000000000000e+00
9.900000000000e+02 0.000000000000e+00 6.500000000000e+00 3.162790849260e-09 -2.012165430317e-10 0.000000000000e+00
9.890000000000e+02 0.000000000000e+00 7.500000000000e+00 8.155343716342e-10 -2.216517638377e-10 0.000000000000e+00
9.900000000000e+02 0.000000000000e+00 7.500000000000e+00 8.156161596617e-10 -2.014061535321e-10 0.000000000000e+00
9.890000000000e+02 0.000000000000e+00 8.500000000000e+00 2.279884170493e-08 -2.233609770372e-10 0.000000000000e+00
9.900000000000e+02 0.000000000000e+00 8.500000000000e+00 2.280187912593e-08 -2.029612429246e-10 0.000000000000e+00
9.890000000000e+02 0.000000000000e+00 9.500000000000e+00 8.058376209869e-07 -2.839086458968e-10 0.000000000000e+00
9.900000000000e+02 0.000000000000e+00 9.500000000000e+00 8.059459563678e-07 -2.580505518213e-10 0.000000000000e+00
9.890000000000e+02 0.000000000000e+00 1.050000000000e+01 4.731552952025e-08 -3.462817357267e-10 0.000000000000e+00
9.900000000000e+02 0.000000000000e+00 1.050000000000e+01 4.732190370309e-08 -3.148009779418e-10 0.000000000000e+00
9.890000000000e+02 0.000000000000e+00 1.150000000000e+01 2.449603367010e-08 -3.516066401972e-10 0.000000000000e+00
9.900000000000e+02 0.000000000000e+00 1.150000000000e+01 2.449938502218e-08 -3.196463748939e-10 0.000000000000e+00
9.890000000000e+02 0.000000000000e+00 1.250000000000e+01 1.929703708860e-10 -3.534885786005e-10 0.000000000000e+00
9.900000000000e+02 0.000000000000e+00 1.250000000000e+01 1.930078709013e-10 -3.213591967057e-10 0.000000000000e+00
9.890000000000e+02 0.000000000000e+00 1.350000000000e+01 6.856781387396e-07 -5.609235749141e-10 0.000000000000e+00
9.900000000000e+02 0.000000000000e+00 1.350000000000e+01 6.860615735099e-07 -5.112245322861e-10 0.000000000000e+00
9.890000000000e+02 0.000000000000e+00 1.450000000000e+01 2.556251164153e-08 -7.762963461381e-10 0.000000000000e+00
9.900000000000e+02 0.000000000000e+00 1.450000000000e+01 2.557692230657e-08 -7.083610671542e-10 0.000000000000e+00
9.890000000000e+02 0.000000000000e+00 1.550000000000e+01 1.342214457478e-08 -7.888341923465e-10 0.000000000000e+00
9.900000000000e+02 0.000000000000e+00 1.550000000000e+01 1.343022755130e-08 -7.198543255716e-10 0.000000000000e+00
9.890000000000e+02 0.000000000000e+00 1.650000000000e+01 5.487507092272e-08 -8.132418876691e-10 0.000000000000e+00
9.900000000000e+02 0.000000000000e+00 1.650000000000e+01 5.491152945633e-08 -7.422844627602e-10 0.000000000000e+00
9.890000000000e+02 0.000000000000e+00 1.750000000000e+01 2.067545155182e-08 -8.409508980418e-10 0.000000000000e+00
9.900000000000e+02 0.000000000000e+00 1.750000000000e+01 2.068963338632e-08 -7.677643363263e-10 0.000000000000e+00
9.890000000000e+02 0.000000000000e+00 1.850000000000e+01 3.996508349412e-09 -8.506775341784e-10 0.000000000000e+00
9.900000000000e+02 0.000000000000e+00 1.850000000000e+01 3.999552113946e-09 -7.767243883466e-10 0.000000000000e+00
9.890000000000e+02 0.000000000000e+00 1.950000000000e+01 1.390908680711e-08 -8.602665673842e-10 0.000000000000e+00
9.900000000000e+02 0.000000000000e+00 1.950000000000e+01 1.392308840622e-08 -7.856165830814e-10 0.000000000000e+00
9.890000000000e+02 0.000000000000e+00 2.050000000000e+01 1.849567318674e-08 -8.789471081711e-10 0.000000000000e+00
9.900000000000e+02 0.000000000000e+00 2.050000000000e+01 1.851572399459e-08 -8.029657982567e-10 0.000000000000e+00
9.890000000000e+02 0.000000000000e+00 2.150000000000e+01 7.237665612562e-08 -9.343228066887e-10 0.000000000000e+00
9.900000000000e+02 0.000000000000e+00 2.150000000000e+01 7.245939237218e-08 -8.544632180362e-10 0.000000000000e+00
9.890000000000e+02 0.000000000000e+00 2.250000000000e+01 6.105203198412e-07 -1.357353615399e-09 0.000000000000e+00
9.900000000000e+02 0.000000000000e+00 2.250000000000e+01 6.112295192217e-07 -1.248097140197e-09 0.000000000000e+00
9.890000000000e+02 0.000000000000e+00 2.350000000000e+01 1.826764852110e-07 -1.851055531425e-09 0.000000000000e+00
9.900000000000e+02 0.000000000000e+00 2.350000000000e+01 1.828903169075e-07 -1.707638857179e-09 0.000000000000e+00
9.890000000000e+02 0.000000000000e+00 2.450000000000e+01 3.689988058422e-09 -1.970193020384e-09 0.000000000000e+00
9.900000000000e+02 0.000000000000e+00 2.450000000000e+01 3.695166143058e-09 -1.818757293408e-09 0.000000000000e+00
9.890000000000e+02 0.000000000000e+00 2.550000000000e+01 4.195465255885e-07 -2.608299508622e-09 0.000000000000e+00
9.900000000000e+02 0.000000000000e+00 2.550000000000e+01 4.207818760982e-07 -2.440789150967e-09 0.000000000000e+00
9.890000000000e+02 0.000000000000e+00 2.650000000000e+01 1.793857307350e-09 -3.249003837940e-09 0.000000000000e+00
9.900000000000e+02 0.000000000000e+00 2.650000000000e+01 1.801072190394e-09 -3.065921709437e-09 0.000000000000e+00
9.890000000000e+02 0.000000000000e+00 2.750000000000e+01 9.887155954743e-08 -3.794970817568e-09 0.000000000000e+00
9.900000000000e+02 0.000000000000e+00 2.750000000000e+01 1.000142514457e-07 -3.651365418792e-09 0.000000000000e+00
9.890000000000e+02 0.000000000000e+00 2.850000000000e+01 1.285408818065e-07 -5.039705707547e-09 0.000000000000e+00
9.900000000000e+02 0.000000000000e+00 2.850000000000e+01 1.300407221958e-07 -4.986573573560e-09 0.000000000000e+00
9.890000000000e+02 0.000000000000e+00 2.950000000000e+01 2.225051773546e-09 -5.757365297299e-09 0.000000000000e+00
9.900000000000e+02 0.000000000000e+00 2.950000000000e+01 2.251090262981e-09 -5.756472675741e-09 0.000000000000e+00
