VARIABLES = "Time","Value"
ZONE T=obs_00250
0.000000000000e+00 0.000000000000e+00
1.797693134862e+308 1.439405223113e-06
