VARIABLES = "X","Y","Z",VELOCITY1_X,VELOCITY1_Y,VELOCITY1_Z
ZONE T="0.000000000000e+00s", 
7.490000000000e+02 0.000000000000e+00 5.000000000000e-01 0.000000000000e+00 0.000000000000e+00 0.000000000000e+00
7.500000000000e+02 0.000000000000e+00 5.000000000000e-01 0.000000000000e+00 0.000000000000e+00 0.000000000000e+00
7.490000000000e+02 0.000000000000e+00 1.500000000000e+00 0.000000000000e+00 0.000000000000e+00 0.000000000000e+00
7.500000000000e+02 0.000000000000e+00 1.500000000000e+00 0.000000000000e+00 0.000000000000e+00 0.000000000000e+00
7.490000000000e+02 0.000000000000e+00 2.500000000000e+00 0.000000000000e+00 0.000000000000e+00 0.000000000000e+00
7.500000000000e+02 0.000000000000e+00 2.500000000000e+00 0.000000000000e+00 0.000000000000e+00 0.000000000000e+00
7.490000000000e+02 0.000000000000e+00 3.500000000000e+00 0.000000000000e+00 0.000000000000e+00 0.000000000000e+00
7.500000000000e+02 0.000000000000e+00 3.500000000000e+00 0.000000000000e+00 0.000000000000e+00 0.000000000000e+00
7.490000000000e+02 0.000000000000e+00 4.500000000000e+00 0.000000000000e+00 0.000000000000e+00 0.000000000000e+00
7.500000000000e+02 0.000000000000e+00 4.500000000000e+00 0.000000000000e+00 0.000000000000e+00 0.000000000000e+00
7.490000000000e+02 0.000000000000e+00 5.500000000000e+00 0.000000000000e+00 0.000000000000e+00 0.000000000000e+00
7.500000000000e+02 0.000000000000e+00 5.500000000000e+00 0.000000000000e+00 0.000000000000e+00 0.000000000000e+00
7.490000000000e+02 0.000000000000e+00 6.500000000000e+00 0.000000000000e+00 0.000000000000e+00 0.000000000000e+00
7.500000000000e+02 0.000000000000e+00 6.500000000000e+00 0.000000000000e+00 0.000000000000e+00 0.000000000000e+00
7.490000000000e+02 0.000000000000e+00 7.500000000000e+00 0.000000000000e+00 0.000000000000e+00 0.000000000000e+00
7.500000000000e+02 0.000000000000e+00 7.500000000000e+00 0.000000000000e+00 0.000000000000e+00 0.000000000000e+00
7.490000000000e+02 0.000000000000e+00 8.500000000000e+00 0.000000000000e+00 0.000000000000e+00 0.000000000000e+00
7.500000000000e+02 0.000000000000e+00 8.500000000000e+00 0.000000000000e+00 0.000000000000e+00 0.000000000000e+00
7.490000000000e+02 0.000000000000e+00 9.500000000000e+00 0.000000000000e+00 0.000000000000e+00 0.000000000000e+00
7.500000000000e+02 0.000000000000e+00 9.500000000000e+00 0.000000000000e+00 0.000000000000e+00 0.000000000000e+00
7.490000000000e+02 0.000000000000e+00 1.050000000000e+01 0.000000000000e+00 0.000000000000e+00 0.000000000000e+00
7.500000000000e+02 0.000000000000e+00 1.050000000000e+01 0.000000000000e+00 0.000000000000e+00 0.000000000000e+00
7.490000000000e+02 0.000000000000e+00 1.150000000000e+01 0.000000000000e+00 0.000000000000e+00 0.000000000000e+00
7.500000000000e+02 0.000000000000e+00 1.150000000000e+01 0.000000000000e+00 0.000000000000e+00 0.000000000000e+00
7.490000000000e+02 0.000000000000e+00 1.250000000000e+01 0.000000000000e+00 0.000000000000e+00 0.000000000000e+00
7.500000000000e+02 0.000000000000e+00 1.250000000000e+01 0.000000000000e+00 0.000000000000e+00 0.000000000000e+00
7.490000000000e+02 0.000000000000e+00 1.350000000000e+01 0.000000000000e+00 0.000000000000e+00 0.000000000000e+00
7.500000000000e+02 0.000000000000e+00 1.350000000000e+01 0.000000000000e+00 0.000000000000e+00 0.000000000000e+00
7.490000000000e+02 0.000000000000e+00 1.450000000000e+01 0.000000000000e+00 0.000000000000e+00 0.000000000000e+00
7.500000000000e+02 0.000000000000e+00 1.450000000000e+01 0.000000000000e+00 0.000000000000e+00 0.000000000000e+00
7.490000000000e+02 0.000000000000e+00 1.550000000000e+01 0.000000000000e+00 0.000000000000e+00 0.000000000000e+00
7.500000000000e+02 0.000000000000e+00 1.550000000000e+01 0.000000000000e+00 0.000000000000e+00 0.000000000000e+00
7.490000000000e+02 0.000000000000e+00 1.650000000000e+01 0.000000000000e+00 0.000000000000e+00 0.000000000000e+00
7.500000000000e+02 0.000000000000e+00 1.650000000000e+01 0.000000000000e+00 0.000000000000e+00 0.000000000000e+00
7.490000000000e+02 0.000000000000e+00 1.750000000000e+01 0.000000000000e+00 0.000000000000e+00 0.000000000000e+00
7.500000000000e+02 0.000000000000e+00 1.750000000000e+01 0.000000000000e+00 0.000000000000e+00 0.000000000000e+00
7.490000000000e+02 0.000000000000e+00 1.850000000000e+01 0.000000000000e+00 0.000000000000e+00 0.000000000000e+00
7.500000000000e+02 0.000000000000e+00 1.850000000000e+01 0.000000000000e+00 0.000000000000e+00 0.000000000000e+00
7.490000000000e+02 0.000000000000e+00 1.950000000000e+01 0.000000000000e+00 0.000000000000e+00 0.000000000000e+00
7.500000000000e+02 0.000000000000e+00 1.950000000000e+01 0.000000000000e+00 0.000000000000e+00 0.000000000000e+00
7.490000000000e+02 0.000000000000e+00 2.050000000000e+01 0.000000000000e+00 0.000000000000e+00 0.000000000000e+00
7.500000000000e+02 0.000000000000e+00 2.050000000000e+01 0.000000000000e+00 0.000000000000e+00 0.000000000000e+00
7.490000000000e+02 0.000000000000e+00 2.150000000000e+01 0.000000000000e+00 0.000000000000e+00 0.000000000000e+00
7.500000000000e+02 0.000000000000e+00 2.150000000000e+01 0.000000000000e+00 0.000000000000e+00 0.000000000000e+00
7.490000000000e+02 0.000000000000e+00 2.250000000000e+01 0.000000000000e+00 0.000000000000e+00 0.000000000000e+00
7.500000000000e+02 0.000000000000e+00 2.250000000000e+01 0.000000000000e+00 0.000000000000e+00 0.000000000000e+00
7.490000000000e+02 0.000000000000e+00 2.350000000000e+01 0.000000000000e+00 0.000000000000e+00 0.000000000000e+00
7.500000000000e+02 0.000000000000e+00 2.350000000000e+01 0.000000000000e+00 0.000000000000e+00 0.000000000000e+00
7.490000000000e+02 0.000000000000e+00 2.450000000000e+01 0.000000000000e+00 0.000000000000e+00 0.000000000000e+00
7.500000000000e+02 0.000000000000e+00 2.450000000000e+01 0.000000000000e+00 0.000000000000e+00 0.000000000000e+00
7.490000000000e+02 0.000000000000e+00 2.550000000000e+01 0.000000000000e+00 0.000000000000e+00 0.000000000000e+00
7.500000000000e+02 0.000000000000e+00 2.550000000000e+01 0.000000000000e+00 0.000000000000e+00 0.000000000000e+00
7.490000000000e+02 0.000000000000e+00 2.650000000000e+01 0.000000000000e+00 0.000000000000e+00 0.000000000000e+00
7.500000000000e+02 0.000000000000e+00 2.650000000000e+01 0.000000000000e+00 0.000000000000e+00 0.000000000000e+00
7.490000000000e+02 0.000000000000e+00 2.750000000000e+01 0.000000000000e+00 0.000000000000e+00 0.000000000000e+00
7.500000000000e+02 0.000000000000e+00 2.750000000000e+01 0.000000000000e+00 0.000000000000e+00 0.000000000000e+00
7.490000000000e+02 0.000000000000e+00 2.850000000000e+01 0.000000000000e+00 0.000000000000e+00 0.000000000000e+00
7.500000000000e+02 0.000000000000e+00 2.850000000000e+01 0.000000000000e+00 0.000000000000e+00 0.000000000000e+00
7.490000000000e+02 0.000000000000e+00 2.950000000000e+01 0.000000000000e+00 0.000000000000e+00 0.000000000000e+00
7.500000000000e+02 0.000000000000e+00 2.950000000000e+01 0.000000000000e+00 0.000000000000e+00 0.000000000000e+00
VARIABLES = "X","Y","Z",VELOCITY1_X,VELOCITY1_Y,VELOCITY1_Z
ZONE T="1.797693134862e+308s", 
7.490000000000e+02 0.000000000000e+00 5.000000000000e-01 1.113130232336e-06 -6.909779735615e-10 0.000000000000e+00
7.500000000000e+02 0.000000000000e+00 5.000000000000e-01 1.114511052214e-06 -6.903301037537e-10 0.000000000000e+00
7.490000000000e+02 0.000000000000e+00 1.500000000000e+00 2.130566818861e-08 -1.395153133570e-09 0.000000000000e+00
7.500000000000e+02 0.000000000000e+00 1.500000000000e+00 2.133209905455e-08 -1.393845433662e-09 0.000000000000e+00
7.490000000000e+02 0.000000000000e+00 2.500000000000e+00 3.264990081314e-09 -1.410412834764e-09 0.000000000000e+00
7.500000000000e+02 0.000000000000e+00 2.500000000000e+00 3.269043657600e-09 -1.409090921426e-09 0.000000000000e+00
7.490000000000e+02 0.000000000000e+00 3.500000000000e+00 5.011128666971e-08 -1.443666630929e-09 0.000000000000e+00
7.500000000000e+02 0.000000000000e+00 3.500000000000e+00 5.017367762533e-08 -1.442315127713e-09 0.000000000000e+00
7.490000000000e+02 0.000000000000e+00 4.500000000000e+00 1.223007337019e-08 -1.482512171561e-09 0.000000000000e+00
7.500000000000e+02 0.000000000000e+00 4.500000000000e+00 1.224530476159e-08 -1.481126225957e-09 0.000000000000e+00
7.490000000000e+02 0.000000000000e+00 5.500000000000e+00 8.256508477776e-07 -2.005072990862e-09 0.000000000000e+00
7.500000000000e+02 0.000000000000e+00 5.500000000000e+00 8.266799254487e-07 -2.003229367865e-09 0.000000000000e+00
7.490000000000e+02 0.000000000000e+00 6.500000000000e+00 2.611200485848e-09 -2.521620944556e-09 0.000000000000e+00
7.500000000000e+02 0.000000000000e+00 6.500000000000e+00 2.614457608640e-09 -2.519325599431e-09 0.000000000000e+00
7.490000000000e+02 0.000000000000e+00 7.500000000000e+00 6.684707619197e-10 -2.523681318233e-09 0.000000000000e+00
7.500000000000e+02 0.000000000000e+00 7.500000000000e+00 6.693121729387e-10 -2.521384355337e-09 0.000000000000e+00
7.490000000000e+02 0.000000000000e+00 8.500000000000e+00 1.833897356562e-08 -2.535930325346e-09 0.000000000000e+00
7.500000000000e+02 0.000000000000e+00 8.500000000000e+00 1.836260112399e-08 -2.533627853509e-09 0.000000000000e+00
7.490000000000e+02 0.000000000000e+00 9.500000000000e+00 6.477570050157e-07 -2.965545022620e-09 0.000000000000e+00
7.500000000000e+02 0.000000000000e+00 9.500000000000e+00 6.485922633161e-07 -2.963054801629e-09 0.000000000000e+00
7.490000000000e+02 0.000000000000e+00 1.050000000000e+01 3.803017254945e-08 -3.407855355020e-09 0.000000000000e+00
7.500000000000e+02 0.000000000000e+00 1.050000000000e+01 3.807921525538e-08 -3.405171818618e-09 0.000000000000e+00
7.490000000000e+02 0.000000000000e+00 1.150000000000e+01 1.967587963053e-08 -3.445095340720e-09 0.000000000000e+00
7.500000000000e+02 0.000000000000e+00 1.150000000000e+01 1.970126812327e-08 -3.442395755714e-09 0.000000000000e+00
7.490000000000e+02 0.000000000000e+00 1.250000000000e+01 1.522386537938e-10 -3.457905339239e-09 0.000000000000e+00
7.500000000000e+02 0.000000000000e+00 1.250000000000e+01 1.524382470967e-10 -3.455200429742e-09 0.000000000000e+00
7.490000000000e+02 0.000000000000e+00 1.350000000000e+01 4.787556561968e-07 -3.807684598964e-09 0.000000000000e+00
7.500000000000e+02 0.000000000000e+00 1.350000000000e+01 4.794556746603e-07 -3.805360371555e-09 0.000000000000e+00
7.490000000000e+02 0.000000000000e+00 1.450000000000e+01 1.784212164064e-08 -4.170384201600e-09 0.000000000000e+00
7.500000000000e+02 0.000000000000e+00 1.450000000000e+01 1.786821253387e-08 -4.168455060518e-09 0.000000000000e+00
7.490000000000e+02 0.000000000000e+00 1.550000000000e+01 9.342087307987e-09 -4.190253901789e-09 0.000000000000e+00
7.500000000000e+02 0.000000000000e+00 1.550000000000e+01 9.355759087051e-09 -4.188346569893e-09 0.000000000000e+00
7.490000000000e+02 0.000000000000e+00 1.650000000000e+01 3.802262163756e-08 -4.224919680778e-09 0.000000000000e+00
7.500000000000e+02 0.000000000000e+00 1.650000000000e+01 3.807833436781e-08 -4.223050897279e-09 0.000000000000e+00
7.490000000000e+02 0.000000000000e+00 1.750000000000e+01 1.430464016057e-08 -4.263228865994e-09 0.000000000000e+00
7.500000000000e+02 0.000000000000e+00 1.750000000000e+01 1.432560801828e-08 -4.261402850732e-09 0.000000000000e+00
7.490000000000e+02 0.000000000000e+00 1.850000000000e+01 2.751181851995e-09 -4.275726593098e-09 0.000000000000e+00
7.500000000000e+02 0.000000000000e+00 1.850000000000e+01 2.755219503098e-09 -4.273914643341e-09 0.000000000000e+00
7.490000000000e+02 0.000000000000e+00 1.950000000000e+01 9.420566930954e-09 -4.284683927872e-09 0.000000000000e+00
7.500000000000e+02 0.000000000000e+00 1.950000000000e+01 9.434447325522e-09 -4.282882494826e-09 0.000000000000e+00
7.490000000000e+02 0.000000000000e+00 2.050000000000e+01 1.246432653626e-08 -4.300808103599e-09 0.000000000000e+00
7.500000000000e+02 0.000000000000e+00 2.050000000000e+01 1.248271383159e-08 -4.299025842672e-09 0.000000000000e+00
7.490000000000e+02 0.000000000000e+00 2.150000000000e+01 4.859850161153e-08 -4.345837294662e-09 0.000000000000e+00
7.500000000000e+02 0.000000000000e+00 2.150000000000e+01 4.867025478078e-08 -4.344109036292e-09 0.000000000000e+00
7.490000000000e+02 0.000000000000e+00 2.250000000000e+01 4.095487008414e-07 -4.683757477527e-09 0.000000000000e+00
7.500000000000e+02 0.000000000000e+00 2.250000000000e+01 4.101535035144e-07 -4.682435321834e-09 0.000000000000e+00
7.490000000000e+02 0.000000000000e+00 2.350000000000e+01 1.225131553739e-07 -5.076194780886e-09 0.000000000000e+00
7.500000000000e+02 0.000000000000e+00 2.350000000000e+01 1.226940813943e-07 -5.075344415323e-09 0.000000000000e+00
7.490000000000e+02 0.000000000000e+00 2.450000000000e+01 2.461718253681e-09 -5.168378019003e-09 0.000000000000e+00
7.500000000000e+02 0.000000000000e+00 2.450000000000e+01 2.465354635051e-09 -5.167638440233e-09 0.000000000000e+00
7.490000000000e+02 0.000000000000e+00 2.550000000000e+01 2.701681032011e-07 -5.369866177396e-09 0.000000000000e+00
7.500000000000e+02 0.000000000000e+00 2.550000000000e+01 2.705678786639e-07 -5.369373372527e-09 0.000000000000e+00
7.490000000000e+02 0.000000000000e+00 2.650000000000e+01 1.141642105179e-09 -5.570375017411e-09 0.000000000000e+00
7.500000000000e+02 0.000000000000e+00 2.650000000000e+01 1.143331710285e-09 -5.570127780797e-09 0.000000000000e+00
7.490000000000e+02 0.000000000000e+00 2.750000000000e+01 5.775132642139e-08 -5.613961070400e-09 0.000000000000e+00
7.500000000000e+02 0.000000000000e+00 2.750000000000e+01 5.783690369815e-08 -5.613767944524e-09 0.000000000000e+00
7.490000000000e+02 0.000000000000e+00 2.850000000000e+01 7.498247835180e-08 -5.712196260041e-09 0.000000000000e+00
7.500000000000e+02 0.000000000000e+00 2.850000000000e+01 7.509359141814e-08 -5.712125037433e-09 0.000000000000e+00
7.490000000000e+02 0.000000000000e+00 2.950000000000e+01 1.297424411457e-09 -5.768650090392e-09 0.000000000000e+00
7.500000000000e+02 0.000000000000e+00 2.950000000000e+01 1.299347015423e-09 -5.768648899249e-09 0.000000000000e+00
