VARIABLES = "X","Y","Z",VELOCITY1_X,VELOCITY1_Y,VELOCITY1_Z
ZONE T="0.000000000000e+00s", 
9.990000000000e+02 0.000000000000e+00 5.000000000000e-01 0.000000000000e+00 0.000000000000e+00 0.000000000000e+00
9.990000000000e+02 0.000000000000e+00 1.500000000000e+00 0.000000000000e+00 0.000000000000e+00 0.000000000000e+00
9.990000000000e+02 0.000000000000e+00 2.500000000000e+00 0.000000000000e+00 0.000000000000e+00 0.000000000000e+00
9.990000000000e+02 0.000000000000e+00 3.500000000000e+00 0.000000000000e+00 0.000000000000e+00 0.000000000000e+00
9.990000000000e+02 0.000000000000e+00 4.500000000000e+00 0.000000000000e+00 0.000000000000e+00 0.000000000000e+00
9.990000000000e+02 0.000000000000e+00 5.500000000000e+00 0.000000000000e+00 0.000000000000e+00 0.000000000000e+00
9.990000000000e+02 0.000000000000e+00 6.500000000000e+00 0.000000000000e+00 0.000000000000e+00 0.000000000000e+00
9.990000000000e+02 0.000000000000e+00 7.500000000000e+00 0.000000000000e+00 0.000000000000e+00 0.000000000000e+00
9.990000000000e+02 0.000000000000e+00 8.500000000000e+00 0.000000000000e+00 0.000000000000e+00 0.000000000000e+00
9.990000000000e+02 0.000000000000e+00 9.500000000000e+00 0.000000000000e+00 0.000000000000e+00 0.000000000000e+00
9.990000000000e+02 0.000000000000e+00 1.050000000000e+01 0.000000000000e+00 0.000000000000e+00 0.000000000000e+00
9.990000000000e+02 0.000000000000e+00 1.150000000000e+01 0.000000000000e+00 0.000000000000e+00 0.000000000000e+00
9.990000000000e+02 0.000000000000e+00 1.250000000000e+01 0.000000000000e+00 0.000000000000e+00 0.000000000000e+00
9.990000000000e+02 0.000000000000e+00 1.350000000000e+01 0.000000000000e+00 0.000000000000e+00 0.000000000000e+00
9.990000000000e+02 0.000000000000e+00 1.450000000000e+01 0.000000000000e+00 0.000000000000e+00 0.000000000000e+00
9.990000000000e+02 0.000000000000e+00 1.550000000000e+01 0.000000000000e+00 0.000000000000e+00 0.000000000000e+00
9.990000000000e+02 0.000000000000e+00 1.650000000000e+01 0.000000000000e+00 0.000000000000e+00 0.000000000000e+00
9.990000000000e+02 0.000000000000e+00 1.750000000000e+01 0.000000000000e+00 0.000000000000e+00 0.000000000000e+00
9.990000000000e+02 0.000000000000e+00 1.850000000000e+01 0.000000000000e+00 0.000000000000e+00 0.000000000000e+00
9.990000000000e+02 0.000000000000e+00 1.950000000000e+01 0.000000000000e+00 0.000000000000e+00 0.000000000000e+00
9.990000000000e+02 0.000000000000e+00 2.050000000000e+01 0.000000000000e+00 0.000000000000e+00 0.000000000000e+00
9.990000000000e+02 0.000000000000e+00 2.150000000000e+01 0.000000000000e+00 0.000000000000e+00 0.000000000000e+00
9.990000000000e+02 0.000000000000e+00 2.250000000000e+01 0.000000000000e+00 0.000000000000e+00 0.000000000000e+00
9.990000000000e+02 0.000000000000e+00 2.350000000000e+01 0.000000000000e+00 0.000000000000e+00 0.000000000000e+00
9.990000000000e+02 0.000000000000e+00 2.450000000000e+01 0.000000000000e+00 0.000000000000e+00 0.000000000000e+00
9.990000000000e+02 0.000000000000e+00 2.550000000000e+01 0.000000000000e+00 0.000000000000e+00 0.000000000000e+00
9.990000000000e+02 0.000000000000e+00 2.650000000000e+01 0.000000000000e+00 0.000000000000e+00 0.000000000000e+00
9.990000000000e+02 0.000000000000e+00 2.750000000000e+01 0.000000000000e+00 0.000000000000e+00 0.000000000000e+00
9.990000000000e+02 0.000000000000e+00 2.850000000000e+01 0.000000000000e+00 0.000000000000e+00 0.000000000000e+00
9.990000000000e+02 0.000000000000e+00 2.950000000000e+01 0.000000000000e+00 0.000000000000e+00 0.000000000000e+00
VARIABLES = "X","Y","Z",VELOCITY1_X,VELOCITY1_Y,VELOCITY1_Z
ZONE T="1.797693134862e+308s", 
9.990000000000e+02 0.000000000000e+00 5.000000000000e-01 1.343078435860e-06 -4.817016514527e-12 0.000000000000e+00
9.990000000000e+02 0.000000000000e+00 1.500000000000e+00 2.570808703188e-08 -9.726664627518e-12 0.000000000000e+00
9.990000000000e+02 0.000000000000e+00 2.500000000000e+00 3.941985025925e-09 -9.833792881800e-12 0.000000000000e+00
9.990000000000e+02 0.000000000000e+00 3.500000000000e+00 6.063212167280e-08 -1.007778761418e-11 0.000000000000e+00
9.990000000000e+02 0.000000000000e+00 4.500000000000e+00 1.480100344933e-08 -1.036364702221e-11 0.000000000000e+00
9.990000000000e+02 0.000000000000e+00 5.500000000000e+00 9.998148418806e-07 -1.425617358937e-11 0.000000000000e+00
9.990000000000e+02 0.000000000000e+00 6.500000000000e+00 3.164036527674e-09 -1.810508635715e-11 0.000000000000e+00
9.990000000000e+02 0.000000000000e+00 7.500000000000e+00 8.159853142225e-10 -1.812218275555e-11 0.000000000000e+00
9.990000000000e+02 0.000000000000e+00 8.500000000000e+00 2.281561528334e-08 -1.826296697184e-11 0.000000000000e+00
9.990000000000e+02 0.000000000000e+00 9.500000000000e+00 8.064359112203e-07 -2.325080093360e-11 0.000000000000e+00
9.990000000000e+02 0.000000000000e+00 1.050000000000e+01 4.735073262101e-08 -2.838921206752e-11 0.000000000000e+00
9.990000000000e+02 0.000000000000e+00 1.150000000000e+01 2.451454731791e-08 -2.882815894621e-11 0.000000000000e+00
9.990000000000e+02 0.000000000000e+00 1.250000000000e+01 1.931786008751e-10 -2.898348037450e-11 0.000000000000e+00
9.990000000000e+02 0.000000000000e+00 1.350000000000e+01 6.878243032064e-07 -4.668496146606e-11 0.000000000000e+00
9.990000000000e+02 0.000000000000e+00 1.450000000000e+01 2.564321123034e-08 -6.506741411867e-11 0.000000000000e+00
9.990000000000e+02 0.000000000000e+00 1.550000000000e+01 1.346758906579e-08 -6.614803374723e-11 0.000000000000e+00
9.990000000000e+02 0.000000000000e+00 1.650000000000e+01 5.508118720172e-08 -6.828639694240e-11 0.000000000000e+00
9.990000000000e+02 0.000000000000e+00 1.750000000000e+01 2.075578193899e-08 -7.072416363263e-11 0.000000000000e+00
9.990000000000e+02 0.000000000000e+00 1.850000000000e+01 4.013862029605e-09 -7.159039483544e-11 0.000000000000e+00
9.990000000000e+02 0.000000000000e+00 1.950000000000e+01 1.399010725738e-08 -7.248401768299e-11 0.000000000000e+00
9.990000000000e+02 0.000000000000e+00 2.050000000000e+01 1.861215463697e-08 -7.424374019283e-11 0.000000000000e+00
9.990000000000e+02 0.000000000000e+00 2.150000000000e+01 7.285898283188e-08 -7.951483113632e-11 0.000000000000e+00
9.990000000000e+02 0.000000000000e+00 2.250000000000e+01 6.146620675703e-07 -1.200022001577e-10 0.000000000000e+00
9.990000000000e+02 0.000000000000e+00 2.350000000000e+01 1.839276406226e-07 -1.674248946229e-10 0.000000000000e+00
9.990000000000e+02 0.000000000000e+00 2.450000000000e+01 3.721720953259e-09 -1.791446190305e-10 0.000000000000e+00
9.990000000000e+02 0.000000000000e+00 2.550000000000e+01 4.280324740224e-07 -2.770621957531e-10 0.000000000000e+00
9.990000000000e+02 0.000000000000e+00 2.650000000000e+01 1.857961942361e-09 -3.787918328312e-10 0.000000000000e+00
9.990000000000e+02 0.000000000000e+00 2.750000000000e+01 1.132364028594e-07 -8.605248633442e-10 0.000000000000e+00
9.990000000000e+02 0.000000000000e+00 2.850000000000e+01 1.484316933955e-07 -2.301589085784e-09 0.000000000000e+00
9.990000000000e+02 0.000000000000e+00 2.950000000000e+01 3.173479714062e-09 -4.450904444502e-09 0.000000000000e+00
