VARIABLES = "X","Y","Z",VELOCITY1_X,VELOCITY1_Y,VELOCITY1_Z
ZONE T="0.000000000000e+00s", 
4.990000000000e+02 0.000000000000e+00 5.000000000000e-01 0.000000000000e+00 0.000000000000e+00 0.000000000000e+00
5.000000000000e+02 0.000000000000e+00 5.000000000000e-01 0.000000000000e+00 0.000000000000e+00 0.000000000000e+00
4.990000000000e+02 0.000000000000e+00 1.500000000000e+00 0.000000000000e+00 0.000000000000e+00 0.000000000000e+00
5.000000000000e+02 0.000000000000e+00 1.500000000000e+00 0.000000000000e+00 0.000000000000e+00 0.000000000000e+00
4.990000000000e+02 0.000000000000e+00 2.500000000000e+00 0.000000000000e+00 0.000000000000e+00 0.000000000000e+00
5.000000000000e+02 0.000000000000e+00 2.500000000000e+00 0.000000000000e+00 0.000000000000e+00 0.000000000000e+00
4.990000000000e+02 0.000000000000e+00 3.500000000000e+00 0.000000000000e+00 0.000000000000e+00 0.000000000000e+00
5.000000000000e+02 0.000000000000e+00 3.500000000000e+00 0.000000000000e+00 0.000000000000e+00 0.000000000000e+00
4.990000000000e+02 0.000000000000e+00 4.500000000000e+00 0.000000000000e+00 0.000000000000e+00 0.000000000000e+00
5.000000000000e+02 0.000000000000e+00 4.500000000000e+00 0.000000000000e+00 0.000000000000e+00 0.000000000000e+00
4.990000000000e+02 0.000000000000e+00 5.500000000000e+00 0.000000000000e+00 0.000000000000e+00 0.000000000000e+00
5.000000000000e+02 0.000000000000e+00 5.500000000000e+00 0.000000000000e+00 0.000000000000e+00 0.000000000000e+00
4.990000000000e+02 0.000000000000e+00 6.500000000000e+00 0.000000000000e+00 0.000000000000e+00 0.000000000000e+00
5.000000000000e+02 0.000000000000e+00 6.500000000000e+00 0.000000000000e+00 0.000000000000e+00 0.000000000000e+00
4.990000000000e+02 0.000000000000e+00 7.500000000000e+00 0.000000000000e+00 0.000000000000e+00 0.000000000000e+00
5.000000000000e+02 0.000000000000e+00 7.500000000000e+00 0.000000000000e+00 0.000000000000e+00 0.000000000000e+00
4.990000000000e+02 0.000000000000e+00 8.500000000000e+00 0.000000000000e+00 0.000000000000e+00 0.000000000000e+00
5.000000000000e+02 0.000000000000e+00 8.500000000000e+00 0.000000000000e+00 0.000000000000e+00 0.000000000000e+00
4.990000000000e+02 0.000000000000e+00 9.500000000000e+00 0.000000000000e+00 0.000000000000e+00 0.000000000000e+00
5.000000000000e+02 0.000000000000e+00 9.500000000000e+00 0.000000000000e+00 0.000000000000e+00 0.000000000000e+00
4.990000000000e+02 0.000000000000e+00 1.050000000000e+01 0.000000000000e+00 0.000000000000e+00 0.000000000000e+00
5.000000000000e+02 0.000000000000e+00 1.050000000000e+01 0.000000000000e+00 0.000000000000e+00 0.000000000000e+00
4.990000000000e+02 0.000000000000e+00 1.150000000000e+01 0.000000000000e+00 0.000000000000e+00 0.000000000000e+00
5.000000000000e+02 0.000000000000e+00 1.150000000000e+01 0.000000000000e+00 0.000000000000e+00 0.000000000000e+00
4.990000000000e+02 0.000000000000e+00 1.250000000000e+01 0.000000000000e+00 0.000000000000e+00 0.000000000000e+00
5.000000000000e+02 0.000000000000e+00 1.250000000000e+01 0.000000000000e+00 0.000000000000e+00 0.000000000000e+00
4.990000000000e+02 0.000000000000e+00 1.350000000000e+01 0.000000000000e+00 0.000000000000e+00 0.000000000000e+00
5.000000000000e+02 0.000000000000e+00 1.350000000000e+01 0.000000000000e+00 0.000000000000e+00 0.000000000000e+00
4.990000000000e+02 0.000000000000e+00 1.450000000000e+01 0.000000000000e+00 0.000000000000e+00 0.000000000000e+00
5.000000000000e+02 0.000000000000e+00 1.450000000000e+01 0.000000000000e+00 0.000000000000e+00 0.000000000000e+00
4.990000000000e+02 0.000000000000e+00 1.550000000000e+01 0.000000000000e+00 0.000000000000e+00 0.000000000000e+00
5.000000000000e+02 0.000000000000e+00 1.550000000000e+01 0.000000000000e+00 0.000000000000e+00 0.000000000000e+00
4.990000000000e+02 0.000000000000e+00 1.650000000000e+01 0.000000000000e+00 0.000000000000e+00 0.000000000000e+00
5.000000000000e+02 0.000000000000e+00 1.650000000000e+01 0.000000000000e+00 0.000000000000e+00 0.000000000000e+00
4.990000000000e+02 0.000000000000e+00 1.750000000000e+01 0.000000000000e+00 0.000000000000e+00 0.000000000000e+00
5.000000000000e+02 0.000000000000e+00 1.750000000000e+01 0.000000000000e+00 0.000000000000e+00 0.000000000000e+00
4.990000000000e+02 0.000000000000e+00 1.850000000000e+01 0.000000000000e+00 0.000000000000e+00 0.000000000000e+00
5.000000000000e+02 0.000000000000e+00 1.850000000000e+01 0.000000000000e+00 0.000000000000e+00 0.000000000000e+00
4.990000000000e+02 0.000000000000e+00 1.950000000000e+01 0.000000000000e+00 0.000000000000e+00 0.000000000000e+00
5.000000000000e+02 0.000000000000e+00 1.950000000000e+01 0.000000000000e+00 0.000000000000e+00 0.000000000000e+00
4.990000000000e+02 0.000000000000e+00 2.050000000000e+01 0.000000000000e+00 0.000000000000e+00 0.000000000000e+00
5.000000000000e+02 0.000000000000e+00 2.050000000000e+01 0.000000000000e+00 0.000000000000e+00 0.000000000000e+00
4.990000000000e+02 0.000000000000e+00 2.150000000000e+01 0.000000000000e+00 0.000000000000e+00 0.000000000000e+00
5.000000000000e+02 0.000000000000e+00 2.150000000000e+01 0.000000000000e+00 0.000000000000e+00 0.000000000000e+00
4.990000000000e+02 0.000000000000e+00 2.250000000000e+01 0.000000000000e+00 0.000000000000e+00 0.000000000000e+00
5.000000000000e+02 0.000000000000e+00 2.250000000000e+01 0.000000000000e+00 0.000000000000e+00 0.000000000000e+00
4.990000000000e+02 0.000000000000e+00 2.350000000000e+01 0.000000000000e+00 0.000000000000e+00 0.000000000000e+00
5.000000000000e+02 0.000000000000e+00 2.350000000000e+01 0.000000000000e+00 0.000000000000e+00 0.000000000000e+00
4.990000000000e+02 0.000000000000e+00 2.450000000000e+01 0.000000000000e+00 0.000000000000e+00 0.000000000000e+00
5.000000000000e+02 0.000000000000e+00 2.450000000000e+01 0.000000000000e+00 0.000000000000e+00 0.000000000000e+00
4.990000000000e+02 0.000000000000e+00 2.550000000000e+01 0.000000000000e+00 0.000000000000e+00 0.000000000000e+00
5.000000000000e+02 0.000000000000e+00 2.550000000000e+01 0.000000000000e+00 0.000000000000e+00 0.000000000000e+00
4.990000000000e+02 0.000000000000e+00 2.650000000000e+01 0.000000000000e+00 0.000000000000e+00 0.000000000000e+00
5.000000000000e+02 0.000000000000e+00 2.650000000000e+01 0.000000000000e+00 0.000000000000e+00 0.000000000000e+00
4.990000000000e+02 0.000000000000e+00 2.750000000000e+01 0.000000000000e+00 0.000000000000e+00 0.000000000000e+00
5.000000000000e+02 0.000000000000e+00 2.750000000000e+01 0.000000000000e+00 0.000000000000e+00 0.000000000000e+00
4.990000000000e+02 0.000000000000e+00 2.850000000000e+01 0.000000000000e+00 0.000000000000e+00 0.000000000000e+00
5.000000000000e+02 0.000000000000e+00 2.850000000000e+01 0.000000000000e+00 0.000000000000e+00 0.000000000000e+00
4.990000000000e+02 0.000000000000e+00 2.950000000000e+01 0.000000000000e+00 0.000000000000e+00 0.000000000000e+00
5.000000000000e+02 0.000000000000e+00 2.950000000000e+01 0.000000000000e+00 0.000000000000e+00 0.000000000000e+00
VARIABLES = "X","Y","Z",VELOCITY1_X,VELOCITY1_Y,VELOCITY1_Z
ZONE T="1.797693134862e+308s", 
4.990000000000e+02 0.000000000000e+00 5.000000000000e-01 7.482990237290e-07 -7.460051097937e-10 0.000000000000e+00
5.000000000000e+02 0.000000000000e+00 5.000000000000e-01 7.497910047629e-07 -7.459632304454e-10 0.000000000000e+00
4.990000000000e+02 0.000000000000e+00 1.500000000000e+00 1.432258619644e-08 -1.506196465167e-09 0.000000000000e+00
5.000000000000e+02 0.000000000000e+00 1.500000000000e+00 1.435114308222e-08 -1.506112062797e-09 0.000000000000e+00
4.990000000000e+02 0.000000000000e+00 2.500000000000e+00 2.194668372627e-09 -1.522661946984e-09 0.000000000000e+00
5.000000000000e+02 0.000000000000e+00 2.500000000000e+00 2.199044367300e-09 -1.522576639754e-09 0.000000000000e+00
4.990000000000e+02 0.000000000000e+00 3.500000000000e+00 3.367290329773e-08 -1.558426722283e-09 0.000000000000e+00
5.000000000000e+02 0.000000000000e+00 3.500000000000e+00 3.374005497520e-08 -1.558339526513e-09 0.000000000000e+00
4.990000000000e+02 0.000000000000e+00 4.500000000000e+00 8.217877828508e-09 -1.600193724449e-09 0.000000000000e+00
5.000000000000e+02 0.000000000000e+00 4.500000000000e+00 8.234266470418e-09 -1.600104288495e-09 0.000000000000e+00
4.990000000000e+02 0.000000000000e+00 5.500000000000e+00 5.547375018657e-07 -2.161568619506e-09 0.000000000000e+00
5.000000000000e+02 0.000000000000e+00 5.500000000000e+00 5.558438448934e-07 -2.161449816780e-09 0.000000000000e+00
4.990000000000e+02 0.000000000000e+00 6.500000000000e+00 1.754250814446e-09 -2.716434744266e-09 0.000000000000e+00
5.000000000000e+02 0.000000000000e+00 6.500000000000e+00 1.757749564732e-09 -2.716286727724e-09 0.000000000000e+00
4.990000000000e+02 0.000000000000e+00 7.500000000000e+00 4.486175961549e-10 -2.718632188259e-09 0.000000000000e+00
5.000000000000e+02 0.000000000000e+00 7.500000000000e+00 4.495127896335e-10 -2.718484069085e-09 0.000000000000e+00
4.990000000000e+02 0.000000000000e+00 8.500000000000e+00 1.227354309357e-08 -2.731342274364e-09 0.000000000000e+00
5.000000000000e+02 0.000000000000e+00 8.500000000000e+00 1.229806680676e-08 -2.731193806601e-09 0.000000000000e+00
4.990000000000e+02 0.000000000000e+00 9.500000000000e+00 4.334741593131e-07 -3.176685903825e-09 0.000000000000e+00
5.000000000000e+02 0.000000000000e+00 9.500000000000e+00 4.343403239293e-07 -3.176525636539e-09 0.000000000000e+00
4.990000000000e+02 0.000000000000e+00 1.050000000000e+01 2.544924690301e-08 -3.635154292379e-09 0.000000000000e+00
5.000000000000e+02 0.000000000000e+00 1.050000000000e+01 2.550009963456e-08 -3.634981818119e-09 0.000000000000e+00
4.990000000000e+02 0.000000000000e+00 1.150000000000e+01 1.316588886763e-08 -3.673733774446e-09 0.000000000000e+00
5.000000000000e+02 0.000000000000e+00 1.150000000000e+01 1.319219787772e-08 -3.673560256412e-09 0.000000000000e+00
4.990000000000e+02 0.000000000000e+00 1.250000000000e+01 1.016734118225e-10 -3.686990223637e-09 0.000000000000e+00
5.000000000000e+02 0.000000000000e+00 1.250000000000e+01 1.018767697278e-10 -3.686816371180e-09 0.000000000000e+00
4.990000000000e+02 0.000000000000e+00 1.350000000000e+01 3.152599888714e-07 -4.004495829548e-09 0.000000000000e+00
5.000000000000e+02 0.000000000000e+00 1.350000000000e+01 3.158948367345e-07 -4.004346503030e-09 0.000000000000e+00
4.990000000000e+02 0.000000000000e+00 1.450000000000e+01 1.174883968437e-08 -4.333732690644e-09 0.000000000000e+00
5.000000000000e+02 0.000000000000e+00 1.450000000000e+01 1.177249882695e-08 -4.333608750505e-09 0.000000000000e+00
4.990000000000e+02 0.000000000000e+00 1.550000000000e+01 6.151001682045e-09 -4.351755349261e-09 0.000000000000e+00
5.000000000000e+02 0.000000000000e+00 1.550000000000e+01 6.163388874136e-09 -4.351632790133e-09 0.000000000000e+00
4.990000000000e+02 0.000000000000e+00 1.650000000000e+01 2.503057997588e-08 -4.383153333906e-09 0.000000000000e+00
5.000000000000e+02 0.000000000000e+00 1.650000000000e+01 2.508099187539e-08 -4.383033249095e-09 0.000000000000e+00
4.990000000000e+02 0.000000000000e+00 1.750000000000e+01 9.416360827114e-09 -4.417840392158e-09 0.000000000000e+00
5.000000000000e+02 0.000000000000e+00 1.750000000000e+01 9.435325961512e-09 -4.417723041183e-09 0.000000000000e+00
4.990000000000e+02 0.000000000000e+00 1.850000000000e+01 1.810723211529e-09 -4.429146420326e-09 0.000000000000e+00
5.000000000000e+02 0.000000000000e+00 1.850000000000e+01 1.814370409420e-09 -4.429029998369e-09 0.000000000000e+00
4.990000000000e+02 0.000000000000e+00 1.950000000000e+01 6.196874726237e-09 -4.437212564993e-09 0.000000000000e+00
5.000000000000e+02 0.000000000000e+00 1.950000000000e+01 6.209359894568e-09 -4.437096829442e-09 0.000000000000e+00
4.990000000000e+02 0.000000000000e+00 2.050000000000e+01 8.197695566534e-09 -4.451713614559e-09 0.000000000000e+00
5.000000000000e+02 0.000000000000e+00 2.050000000000e+01 8.214213249916e-09 -4.451599115086e-09 0.000000000000e+00
4.990000000000e+02 0.000000000000e+00 2.150000000000e+01 3.195910627539e-08 -4.492169627273e-09 0.000000000000e+00
5.000000000000e+02 0.000000000000e+00 2.150000000000e+01 3.202350497638e-08 -4.492058559311e-09 0.000000000000e+00
4.990000000000e+02 0.000000000000e+00 2.250000000000e+01 2.693176448734e-07 -4.795694629342e-09 0.000000000000e+00
5.000000000000e+02 0.000000000000e+00 2.250000000000e+01 2.698603365349e-07 -4.795609451874e-09 0.000000000000e+00
4.990000000000e+02 0.000000000000e+00 2.350000000000e+01 8.056391340968e-08 -5.148193429899e-09 0.000000000000e+00
5.000000000000e+02 0.000000000000e+00 2.350000000000e+01 8.072625485530e-08 -5.148138660467e-09 0.000000000000e+00
4.990000000000e+02 0.000000000000e+00 2.450000000000e+01 1.618752725566e-09 -5.230991016956e-09 0.000000000000e+00
5.000000000000e+02 0.000000000000e+00 2.450000000000e+01 1.622014671662e-09 -5.230943512842e-09 0.000000000000e+00
4.990000000000e+02 0.000000000000e+00 2.550000000000e+01 1.776118111295e-07 -5.411582809061e-09 0.000000000000e+00
5.000000000000e+02 0.000000000000e+00 2.550000000000e+01 1.779697582180e-07 -5.411551141519e-09 0.000000000000e+00
4.990000000000e+02 0.000000000000e+00 2.650000000000e+01 7.505118630666e-10 -5.591304000036e-09 0.000000000000e+00
5.000000000000e+02 0.000000000000e+00 2.650000000000e+01 7.520244126004e-10 -5.591288115684e-09 0.000000000000e+00
4.990000000000e+02 0.000000000000e+00 2.750000000000e+01 3.795895128175e-08 -5.630311155392e-09 0.000000000000e+00
5.000000000000e+02 0.000000000000e+00 2.750000000000e+01 3.803545852258e-08 -5.630298715166e-09 0.000000000000e+00
4.990000000000e+02 0.000000000000e+00 2.850000000000e+01 4.928455391247e-08 -5.718226907427e-09 0.000000000000e+00
5.000000000000e+02 0.000000000000e+00 2.850000000000e+01 4.938388834458e-08 -5.718222265675e-09 0.000000000000e+00
4.990000000000e+02 0.000000000000e+00 2.950000000000e+01 8.527716115278e-10 -5.768750974744e-09 0.000000000000e+00
5.000000000000e+02 0.000000000000e+00 2.950000000000e+01 8.544903985137e-10 -5.768750897271e-09 0.000000000000e+00
