 TITLE = "Profiles along polylines"
 VARIABLES = "DIST" "HEAD" "VELOCITY_X1" "VELOCITY_Y1" "VELOCITY_Z1" 
 ZONE T="TIME=0.000000000000e+00"
0.000000000000e+00 3.000000000000e+01 0.000000000000e+00 0.000000000000e+00 0.000000000000e+00 
1.000000000000e+00 3.000000000000e+01 0.000000000000e+00 0.000000000000e+00 0.000000000000e+00 
2.000000000000e+00 3.000000000000e+01 0.000000000000e+00 0.000000000000e+00 0.000000000000e+00 
3.000000000000e+00 3.000000000000e+01 0.000000000000e+00 0.000000000000e+00 0.000000000000e+00 
4.000000000000e+00 3.000000000000e+01 0.000000000000e+00 0.000000000000e+00 0.000000000000e+00 
5.000000000000e+00 3.000000000000e+01 0.000000000000e+00 0.000000000000e+00 0.000000000000e+00 
6.000000000000e+00 3.000000000000e+01 0.000000000000e+00 0.000000000000e+00 0.000000000000e+00 
7.000000000000e+00 3.000000000000e+01 0.000000000000e+00 0.000000000000e+00 0.000000000000e+00 
8.000000000000e+00 3.000000000000e+01 0.000000000000e+00 0.000000000000e+00 0.000000000000e+00 
9.000000000000e+00 3.000000000000e+01 0.000000000000e+00 0.000000000000e+00 0.000000000000e+00 
1.000000000000e+01 3.000000000000e+01 0.000000000000e+00 0.000000000000e+00 0.000000000000e+00 
1.100000000000e+01 3.000000000000e+01 0.000000000000e+00 0.000000000000e+00 0.000000000000e+00 
1.200000000000e+01 3.000000000000e+01 0.000000000000e+00 0.000000000000e+00 0.000000000000e+00 
1.300000000000e+01 3.000000000000e+01 0.000000000000e+00 0.000000000000e+00 0.000000000000e+00 
1.400000000000e+01 3.000000000000e+01 0.000000000000e+00 0.000000000000e+00 0.000000000000e+00 
1.500000000000e+01 3.000000000000e+01 0.000000000000e+00 0.000000000000e+00 0.000000000000e+00 
1.600000000000e+01 3.000000000000e+01 0.000000000000e+00 0.000000000000e+00 0.000000000000e+00 
1.700000000000e+01 3.000000000000e+01 0.000000000000e+00 0.000000000000e+00 0.000000000000e+00 
1.800000000000e+01 3.000000000000e+01 0.000000000000e+00 0.000000000000e+00 0.000000000000e+00 
1.900000000000e+01 3.000000000000e+01 0.000000000000e+00 0.000000000000e+00 0.000000000000e+00 
2.000000000000e+01 3.000000000000e+01 0.000000000000e+00 0.000000000000e+00 0.000000000000e+00 
2.100000000000e+01 3.000000000000e+01 0.000000000000e+00 0.000000000000e+00 0.000000000000e+00 
2.200000000000e+01 3.000000000000e+01 0.000000000000e+00 0.000000000000e+00 0.000000000000e+00 
2.300000000000e+01 3.000000000000e+01 0.000000000000e+00 0.000000000000e+00 0.000000000000e+00 
2.400000000000e+01 3.000000000000e+01 0.000000000000e+00 0.000000000000e+00 0.000000000000e+00 
2.500000000000e+01 3.000000000000e+01 0.000000000000e+00 0.000000000000e+00 0.000000000000e+00 
2.600000000000e+01 3.000000000000e+01 0.000000000000e+00 0.000000000000e+00 0.000000000000e+00 
2.700000000000e+01 3.000000000000e+01 0.000000000000e+00 0.000000000000e+00 0.000000000000e+00 
2.800000000000e+01 3.000000000000e+01 0.000000000000e+00 0.000000000000e+00 0.000000000000e+00 
2.900000000000e+01 3.000000000000e+01 0.000000000000e+00 0.000000000000e+00 0.000000000000e+00 
3.000000000000e+01 3.000000000000e+01 0.000000000000e+00 0.000000000000e+00 0.000000000000e+00 
 TITLE = "Profiles along polylines"
 VARIABLES = "DIST" "HEAD" "VELOCITY_X1" "VELOCITY_Y1" "VELOCITY_Z1" 
 ZONE T="TIME=1.797693134862e+308"
0.000000000000e+00 3.000990086934e+01 1.342535592033e-06 -5.416287005314e-11 0.000000000000e+00 
1.000000000000e+00 3.000990090927e+01 6.841187276463e-07 -8.176456174026e-11 0.000000000000e+00 
2.000000000000e+00 3.000990512204e+01 1.482324566204e-08 -1.099684807259e-10 0.000000000000e+00 
3.000000000000e+00 3.000993291795e+01 3.227760186640e-08 -1.119416060076e-10 0.000000000000e+00 
4.000000000000e+00 3.000993477456e+01 3.770485961042e-08 -1.149185665038e-10 0.000000000000e+00 
5.000000000000e+00 3.000994259776e+01 5.070932090516e-07 -1.383907743568e-10 0.000000000000e+00 
6.000000000000e+00 3.000994275715e+01 5.012788793453e-07 -1.818781600472e-10 0.000000000000e+00 
7.000000000000e+00 3.001000676101e+01 1.996951571629e-09 -2.035952735011e-10 0.000000000000e+00 
8.000000000000e+00 3.001025730223e+01 1.181580515301e-08 -2.044774211549e-10 0.000000000000e+00 
9.000000000000e+00 3.001026653333e+01 4.143536721509e-07 -2.331174018384e-10 0.000000000000e+00 
1.000000000000e+01 3.001026686564e+01 4.266149594024e-07 -2.896646874733e-10 0.000000000000e+00 
1.100000000000e+01 3.001027377054e+01 3.592039236800e-08 -3.208081173399e-10 0.000000000000e+00 
1.200000000000e+01 3.001028732301e+01 1.235773227304e-08 -3.241239671936e-10 0.000000000000e+00 
1.300000000000e+01 3.001205202183e+01 3.430428819356e-07 -4.209330218125e-10 0.000000000000e+00 
1.400000000000e+01 3.001205292837e+01 3.557380736112e-07 -6.164931493242e-10 0.000000000000e+00 
1.500000000000e+01 3.001208663002e+01 1.952434234786e-08 -7.219171363490e-10 0.000000000000e+00 
1.600000000000e+01 3.001215204727e+01 3.418648936293e-08 -7.390539779057e-10 0.000000000000e+00 
1.700000000000e+01 3.001216862374e+01 3.781542926477e-08 -7.632535019192e-10 0.000000000000e+00 
1.800000000000e+01 3.001221419901e+01 1.236875327310e-08 -7.806479176912e-10 0.000000000000e+00 
1.900000000000e+01 3.001245397343e+01 8.985831183046e-09 -7.896602702144e-10 0.000000000000e+00 
2.000000000000e+01 3.001252484042e+01 1.623990500685e-08 -8.029019241180e-10 0.000000000000e+00 
2.100000000000e+01 3.001257959285e+01 4.549125478844e-08 -8.376371596431e-10 0.000000000000e+00 
2.200000000000e+01 3.001259453648e+01 3.416759300916e-07 -1.062199173330e-09 0.000000000000e+00 
2.300000000000e+01 3.001259712532e+01 3.968700495187e-07 -1.492601841187e-09 0.000000000000e+00 
2.400000000000e+01 3.001260896210e+01 9.329400079052e-08 -1.780465963982e-09 0.000000000000e+00 
2.500000000000e+01 3.001323636188e+01 2.119870451721e-07 -2.148692892592e-09 0.000000000000e+00 
2.600000000000e+01 3.001324402422e+01 2.110465327179e-07 -2.774581306496e-09 0.000000000000e+00 
2.700000000000e+01 3.001551966766e+01 5.069599288181e-08 -3.378596519657e-09 0.000000000000e+00 
2.800000000000e+01 3.001557312104e+01 1.144297936312e-07 -4.330986151683e-09 0.000000000000e+00 
2.900000000000e+01 3.001562914954e+01 6.578882023717e-08 -5.374823070519e-09 0.000000000000e+00 
3.000000000000e+01 3.001936237878e+01 2.238892120282e-09 -5.756581737913e-09 0.000000000000e+00 
