 TITLE = "Profiles along polylines"
 VARIABLES = "DIST" "HEAD" "VELOCITY_X1" "VELOCITY_Y1" "VELOCITY_Z1" 
 ZONE T="TIME=0.000000000000e+00"
0.000000000000e+00 3.000000000000e+01 0.000000000000e+00 0.000000000000e+00 0.000000000000e+00 
1.000000000000e+00 3.000000000000e+01 0.000000000000e+00 0.000000000000e+00 0.000000000000e+00 
2.000000000000e+00 3.000000000000e+01 0.000000000000e+00 0.000000000000e+00 0.000000000000e+00 
3.000000000000e+00 3.000000000000e+01 0.000000000000e+00 0.000000000000e+00 0.000000000000e+00 
4.000000000000e+00 3.000000000000e+01 0.000000000000e+00 0.000000000000e+00 0.000000000000e+00 
5.000000000000e+00 3.000000000000e+01 0.000000000000e+00 0.000000000000e+00 0.000000000000e+00 
6.000000000000e+00 3.000000000000e+01 0.000000000000e+00 0.000000000000e+00 0.000000000000e+00 
7.000000000000e+00 3.000000000000e+01 0.000000000000e+00 0.000000000000e+00 0.000000000000e+00 
8.000000000000e+00 3.000000000000e+01 0.000000000000e+00 0.000000000000e+00 0.000000000000e+00 
9.000000000000e+00 3.000000000000e+01 0.000000000000e+00 0.000000000000e+00 0.000000000000e+00 
1.000000000000e+01 3.000000000000e+01 0.000000000000e+00 0.000000000000e+00 0.000000000000e+00 
1.100000000000e+01 3.000000000000e+01 0.000000000000e+00 0.000000000000e+00 0.000000000000e+00 
1.200000000000e+01 3.000000000000e+01 0.000000000000e+00 0.000000000000e+00 0.000000000000e+00 
1.300000000000e+01 3.000000000000e+01 0.000000000000e+00 0.000000000000e+00 0.000000000000e+00 
1.400000000000e+01 3.000000000000e+01 0.000000000000e+00 0.000000000000e+00 0.000000000000e+00 
1.500000000000e+01 3.000000000000e+01 0.000000000000e+00 0.000000000000e+00 0.000000000000e+00 
1.600000000000e+01 3.000000000000e+01 0.000000000000e+00 0.000000000000e+00 0.000000000000e+00 
1.700000000000e+01 3.000000000000e+01 0.000000000000e+00 0.000000000000e+00 0.000000000000e+00 
1.800000000000e+01 3.000000000000e+01 0.000000000000e+00 0.000000000000e+00 0.000000000000e+00 
1.900000000000e+01 3.000000000000e+01 0.000000000000e+00 0.000000000000e+00 0.000000000000e+00 
2.000000000000e+01 3.000000000000e+01 0.000000000000e+00 0.000000000000e+00 0.000000000000e+00 
2.100000000000e+01 3.000000000000e+01 0.000000000000e+00 0.000000000000e+00 0.000000000000e+00 
2.200000000000e+01 3.000000000000e+01 0.000000000000e+00 0.000000000000e+00 0.000000000000e+00 
2.300000000000e+01 3.000000000000e+01 0.000000000000e+00 0.000000000000e+00 0.000000000000e+00 
2.400000000000e+01 3.000000000000e+01 0.000000000000e+00 0.000000000000e+00 0.000000000000e+00 
2.500000000000e+01 3.000000000000e+01 0.000000000000e+00 0.000000000000e+00 0.000000000000e+00 
2.600000000000e+01 3.000000000000e+01 0.000000000000e+00 0.000000000000e+00 0.000000000000e+00 
2.700000000000e+01 3.000000000000e+01 0.000000000000e+00 0.000000000000e+00 0.000000000000e+00 
2.800000000000e+01 3.000000000000e+01 0.000000000000e+00 0.000000000000e+00 0.000000000000e+00 
2.900000000000e+01 3.000000000000e+01 0.000000000000e+00 0.000000000000e+00 0.000000000000e+00 
3.000000000000e+01 3.000000000000e+01 0.000000000000e+00 0.000000000000e+00 0.000000000000e+00 
 TITLE = "Profiles along polylines"
 VARIABLES = "DIST" "HEAD" "VELOCITY_X1" "VELOCITY_Y1" "VELOCITY_Z1" 
 ZONE T="TIME=1.797693134862e+308"
0.000000000000e+00 3.054174913945e+01 7.496911178334e-10 -7.496441874691e-10 0.000000000000e+00 
1.000000000000e+00 3.054174969214e+01 3.819844074783e-10 -1.131755456912e-09 0.000000000000e+00 
2.000000000000e+00 3.054180800600e+01 8.272880985471e-12 -1.522143468368e-09 0.000000000000e+00 
3.000000000000e+00 3.054219273195e+01 1.796635646915e-11 -1.548385802111e-09 0.000000000000e+00 
4.000000000000e+00 3.054221839649e+01 2.098187258763e-11 -1.587338754056e-09 0.000000000000e+00 
5.000000000000e+00 3.054232637585e+01 2.819843522518e-10 -1.890294976569e-09 0.000000000000e+00 
6.000000000000e+00 3.054232853635e+01 2.787212484030e-10 -2.451077636255e-09 0.000000000000e+00 
7.000000000000e+00 3.054318713146e+01 1.103252601820e-12 -2.730995151721e-09 0.000000000000e+00 
8.000000000000e+00 3.054654762792e+01 6.369983955872e-12 -2.738468888921e-09 0.000000000000e+00 
9.000000000000e+00 3.054667106848e+01 2.231825734269e-10 -2.968011700298e-09 0.000000000000e+00 
1.000000000000e+01 3.054667513202e+01 2.297616607774e-10 -3.421010176865e-09 0.000000000000e+00 
1.100000000000e+01 3.054675431530e+01 1.933247626774e-11 -3.670173781381e-09 0.000000000000e+00 
1.200000000000e+01 3.054690899670e+01 6.642403038635e-12 -3.696155058019e-09 0.000000000000e+00 
1.300000000000e+01 3.056701523013e+01 1.576341792755e-10 -3.860428568490e-09 0.000000000000e+00 
1.400000000000e+01 3.056702227728e+01 1.634496624194e-10 -4.181530626449e-09 0.000000000000e+00 
1.500000000000e+01 3.056722676226e+01 8.946836102503e-12 -4.353950660037e-09 0.000000000000e+00 
1.600000000000e+01 3.056761895603e+01 1.558560759456e-11 -4.378484375609e-09 0.000000000000e+00 
1.700000000000e+01 3.056771602387e+01 1.721730290853e-11 -4.411288713382e-09 0.000000000000e+00 
1.800000000000e+01 3.056797607339e+01 5.611429179991e-12 -4.434119591137e-09 0.000000000000e+00 
1.900000000000e+01 3.056933186942e+01 4.002184277453e-12 -4.443733947463e-09 0.000000000000e+00 
2.000000000000e+01 3.056972876993e+01 7.194175583678e-12 -4.454930671989e-09 0.000000000000e+00 
2.100000000000e+01 3.057002977457e+01 2.006949691777e-11 -4.482195171043e-09 0.000000000000e+00 
2.200000000000e+01 3.057010767955e+01 1.505716937467e-10 -4.652836313421e-09 0.000000000000e+00 
2.300000000000e+01 3.057011754268e+01 1.748590941584e-10 -4.978281882769e-09 0.000000000000e+00 
2.400000000000e+01 3.057015291496e+01 4.107138676010e-11 -5.194233821686e-09 0.000000000000e+00 
2.500000000000e+01 3.057194143570e+01 8.957311816989e-11 -5.324882443461e-09 0.000000000000e+00 
2.600000000000e+01 3.057195829447e+01 8.913610840472e-11 -5.503600652886e-09 0.000000000000e+00 
2.700000000000e+01 3.057607938405e+01 1.934519918796e-11 -5.612092822362e-09 0.000000000000e+00 
2.800000000000e+01 3.057616143010e+01 4.359961449643e-11 -5.675039193837e-09 0.000000000000e+00 
2.900000000000e+01 3.057622560048e+01 2.505532446007e-11 -5.743699192088e-09 0.000000000000e+00 
3.000000000000e+01 3.057996672614e+01 8.523127333947e-13 -5.768757893708e-09 0.000000000000e+00 
