 TITLE = "Profiles along polylines"
 VARIABLES = "DIST" "HEAD" "VELOCITY_X1" "VELOCITY_Y1" "VELOCITY_Z1" 
 ZONE T="TIME=0.000000000000e+00"
0.000000000000e+00 3.000000000000e+01 0.000000000000e+00 0.000000000000e+00 0.000000000000e+00 
1.000000000000e+00 3.000000000000e+01 0.000000000000e+00 0.000000000000e+00 0.000000000000e+00 
2.000000000000e+00 3.000000000000e+01 0.000000000000e+00 0.000000000000e+00 0.000000000000e+00 
3.000000000000e+00 3.000000000000e+01 0.000000000000e+00 0.000000000000e+00 0.000000000000e+00 
4.000000000000e+00 3.000000000000e+01 0.000000000000e+00 0.000000000000e+00 0.000000000000e+00 
5.000000000000e+00 3.000000000000e+01 0.000000000000e+00 0.000000000000e+00 0.000000000000e+00 
6.000000000000e+00 3.000000000000e+01 0.000000000000e+00 0.000000000000e+00 0.000000000000e+00 
7.000000000000e+00 3.000000000000e+01 0.000000000000e+00 0.000000000000e+00 0.000000000000e+00 
8.000000000000e+00 3.000000000000e+01 0.000000000000e+00 0.000000000000e+00 0.000000000000e+00 
9.000000000000e+00 3.000000000000e+01 0.000000000000e+00 0.000000000000e+00 0.000000000000e+00 
1.000000000000e+01 3.000000000000e+01 0.000000000000e+00 0.000000000000e+00 0.000000000000e+00 
1.100000000000e+01 3.000000000000e+01 0.000000000000e+00 0.000000000000e+00 0.000000000000e+00 
1.200000000000e+01 3.000000000000e+01 0.000000000000e+00 0.000000000000e+00 0.000000000000e+00 
1.300000000000e+01 3.000000000000e+01 0.000000000000e+00 0.000000000000e+00 0.000000000000e+00 
1.400000000000e+01 3.000000000000e+01 0.000000000000e+00 0.000000000000e+00 0.000000000000e+00 
1.500000000000e+01 3.000000000000e+01 0.000000000000e+00 0.000000000000e+00 0.000000000000e+00 
1.600000000000e+01 3.000000000000e+01 0.000000000000e+00 0.000000000000e+00 0.000000000000e+00 
1.700000000000e+01 3.000000000000e+01 0.000000000000e+00 0.000000000000e+00 0.000000000000e+00 
1.800000000000e+01 3.000000000000e+01 0.000000000000e+00 0.000000000000e+00 0.000000000000e+00 
1.900000000000e+01 3.000000000000e+01 0.000000000000e+00 0.000000000000e+00 0.000000000000e+00 
2.000000000000e+01 3.000000000000e+01 0.000000000000e+00 0.000000000000e+00 0.000000000000e+00 
2.100000000000e+01 3.000000000000e+01 0.000000000000e+00 0.000000000000e+00 0.000000000000e+00 
2.200000000000e+01 3.000000000000e+01 0.000000000000e+00 0.000000000000e+00 0.000000000000e+00 
2.300000000000e+01 3.000000000000e+01 0.000000000000e+00 0.000000000000e+00 0.000000000000e+00 
2.400000000000e+01 3.000000000000e+01 0.000000000000e+00 0.000000000000e+00 0.000000000000e+00 
2.500000000000e+01 3.000000000000e+01 0.000000000000e+00 0.000000000000e+00 0.000000000000e+00 
2.600000000000e+01 3.000000000000e+01 0.000000000000e+00 0.000000000000e+00 0.000000000000e+00 
2.700000000000e+01 3.000000000000e+01 0.000000000000e+00 0.000000000000e+00 0.000000000000e+00 
2.800000000000e+01 3.000000000000e+01 0.000000000000e+00 0.000000000000e+00 0.000000000000e+00 
2.900000000000e+01 3.000000000000e+01 0.000000000000e+00 0.000000000000e+00 0.000000000000e+00 
3.000000000000e+01 3.000000000000e+01 0.000000000000e+00 0.000000000000e+00 0.000000000000e+00 
 TITLE = "Profiles along polylines"
 VARIABLES = "DIST" "HEAD" "VELOCITY_X1" "VELOCITY_Y1" "VELOCITY_Z1" 
 ZONE T="TIME=1.797693134862e+308"
0.000000000000e+00 3.023154661309e+01 1.113820568963e-06 -6.904037939489e-10 0.000000000000e+00 
1.000000000000e+00 3.023154712211e+01 5.675699775401e-07 -1.042199021951e-09 0.000000000000e+00 
2.000000000000e+00 3.023160081850e+01 1.229345805852e-08 -1.401617798713e-09 0.000000000000e+00 
3.000000000000e+00 3.023195508180e+01 2.670526198169e-08 -1.425855139475e-09 0.000000000000e+00 
4.000000000000e+00 3.023197871654e+01 3.119060931675e-08 -1.461876434791e-09 0.000000000000e+00 
5.000000000000e+00 3.023207816657e+01 4.192020510015e-07 -1.742361534295e-09 0.000000000000e+00 
6.000000000000e+00 3.023208015917e+01 4.143897992511e-07 -2.261512965473e-09 0.000000000000e+00 
7.000000000000e+00 3.023287261006e+01 1.641752926802e-09 -2.520616277219e-09 0.000000000000e+00 
8.000000000000e+00 3.023597424804e+01 9.510732485058e-09 -2.527767809525e-09 0.000000000000e+00 
9.000000000000e+00 3.023608820182e+01 3.332635956552e-07 -2.748614045492e-09 0.000000000000e+00 
1.000000000000e+01 3.023609197523e+01 3.431156217057e-07 -3.184407722371e-09 0.000000000000e+00 
1.100000000000e+01 3.023616583691e+01 2.887267676287e-08 -3.424090103036e-09 0.000000000000e+00 
1.200000000000e+01 3.023631017094e+01 9.921505873028e-09 -3.449105623185e-09 0.000000000000e+00 
1.300000000000e+01 3.025507361632e+01 2.396300755750e-07 -3.630566565375e-09 0.000000000000e+00 
1.400000000000e+01 3.025508029089e+01 2.484813426068e-07 -3.987149737795e-09 0.000000000000e+00 
1.500000000000e+01 3.025527647751e+01 1.360279672707e-08 -4.178619124135e-09 0.000000000000e+00 
1.600000000000e+01 3.025565299978e+01 2.370044465247e-08 -4.205913607753e-09 0.000000000000e+00 
1.700000000000e+01 3.025574629440e+01 2.618353033979e-08 -4.242437120442e-09 0.000000000000e+00 
1.800000000000e+01 3.025599654345e+01 8.534873419460e-09 -4.267865760241e-09 0.000000000000e+00 
1.900000000000e+01 3.025730176558e+01 6.091059268456e-09 -4.278604183368e-09 0.000000000000e+00 
2.000000000000e+01 3.025768397342e+01 1.095121541912e-08 -4.291158093922e-09 0.000000000000e+00 
2.100000000000e+01 3.025797398944e+01 3.055464546972e-08 -4.321767201244e-09 0.000000000000e+00 
2.200000000000e+01 3.025804916117e+01 2.292434353914e-07 -4.513445749500e-09 0.000000000000e+00 
2.300000000000e+01 3.025805877621e+01 2.662279012098e-07 -4.879013483342e-09 0.000000000000e+00 
2.400000000000e+01 3.025809361503e+01 6.253391443762e-08 -5.121581901181e-09 0.000000000000e+00 
2.500000000000e+01 3.025985904567e+01 1.364160653198e-07 -5.268576031014e-09 0.000000000000e+00 
2.600000000000e+01 3.025987576426e+01 1.357554444883e-07 -5.469792685249e-09 0.000000000000e+00 
2.700000000000e+01 3.026398020676e+01 2.946840020961e-08 -5.591972923601e-09 0.000000000000e+00 
2.800000000000e+01 3.026406199568e+01 6.641615699880e-08 -5.662961533381e-09 0.000000000000e+00 
2.900000000000e+01 3.026412609304e+01 3.816824195677e-08 -5.740391086360e-09 0.000000000000e+00 
3.000000000000e+01 3.026786714811e+01 1.298386774089e-09 -5.768649034587e-09 0.000000000000e+00 
