VARIABLES = "X","Y","Z",VELOCITY1_X,VELOCITY1_Y,VELOCITY1_Z
ZONE T="0.000000000000e+00s", 
8.990000000000e+02 0.000000000000e+00 5.000000000000e-01 0.000000000000e+00 0.000000000000e+00 0.000000000000e+00
9.000000000000e+02 0.000000000000e+00 5.000000000000e-01 0.000000000000e+00 0.000000000000e+00 0.000000000000e+00
8.990000000000e+02 0.000000000000e+00 1.500000000000e+00 0.000000000000e+00 0.000000000000e+00 0.000000000000e+00
9.000000000000e+02 0.000000000000e+00 1.500000000000e+00 0.000000000000e+00 0.000000000000e+00 0.000000000000e+00
8.990000000000e+02 0.000000000000e+00 2.500000000000e+00 0.000000000000e+00 0.000000000000e+00 0.000000000000e+00
9.000000000000e+02 0.000000000000e+00 2.500000000000e+00 0.000000000000e+00 0.000000000000e+00 0.000000000000e+00
8.990000000000e+02 0.000000000000e+00 3.500000000000e+00 0.000000000000e+00 0.000000000000e+00 0.000000000000e+00
9.000000000000e+02 0.000000000000e+00 3.500000000000e+00 0.000000000000e+00 0.000000000000e+00 0.000000000000e+00
8.990000000000e+02 0.000000000000e+00 4.500000000000e+00 0.000000000000e+00 0.000000000000e+00 0.000000000000e+00
9.000000000000e+02 0.000000000000e+00 4.500000000000e+00 0.000000000000e+00 0.000000000000e+00 0.000000000000e+00
8.990000000000e+02 0.000000000000e+00 5.500000000000e+00 0.000000000000e+00 0.000000000000e+00 0.000000000000e+00
9.000000000000e+02 0.000000000000e+00 5.500000000000e+00 0.000000000000e+00 0.000000000000e+00 0.000000000000e+00
8.990000000000e+02 0.000000000000e+00 6.500000000000e+00 0.000000000000e+00 0.000000000000e+00 0.000000000000e+00
9.000000000000e+02 0.000000000000e+00 6.500000000000e+00 0.000000000000e+00 0.000000000000e+00 0.000000000000e+00
8.990000000000e+02 0.000000000000e+00 7.500000000000e+00 0.000000000000e+00 0.000000000000e+00 0.000000000000e+00
9.000000000000e+02 0.000000000000e+00 7.500000000000e+00 0.000000000000e+00 0.000000000000e+00 0.000000000000e+00
8.990000000000e+02 0.000000000000e+00 8.500000000000e+00 0.000000000000e+00 0.000000000000e+00 0.000000000000e+00
9.000000000000e+02 0.000000000000e+00 8.500000000000e+00 0.000000000000e+00 0.000000000000e+00 0.000000000000e+00
8.990000000000e+02 0.000000000000e+00 9.500000000000e+00 0.000000000000e+00 0.000000000000e+00 0.000000000000e+00
9.000000000000e+02 0.000000000000e+00 9.500000000000e+00 0.000000000000e+00 0.000000000000e+00 0.000000000000e+00
8.990000000000e+02 0.000000000000e+00 1.050000000000e+01 0.000000000000e+00 0.000000000000e+00 0.000000000000e+00
9.000000000000e+02 0.000000000000e+00 1.050000000000e+01 0.000000000000e+00 0.000000000000e+00 0.000000000000e+00
8.990000000000e+02 0.000000000000e+00 1.150000000000e+01 0.000000000000e+00 0.000000000000e+00 0.000000000000e+00
9.000000000000e+02 0.000000000000e+00 1.150000000000e+01 0.000000000000e+00 0.000000000000e+00 0.000000000000e+00
8.990000000000e+02 0.000000000000e+00 1.250000000000e+01 0.000000000000e+00 0.000000000000e+00 0.000000000000e+00
9.000000000000e+02 0.000000000000e+00 1.250000000000e+01 0.000000000000e+00 0.000000000000e+00 0.000000000000e+00
8.990000000000e+02 0.000000000000e+00 1.350000000000e+01 0.000000000000e+00 0.000000000000e+00 0.000000000000e+00
9.000000000000e+02 0.000000000000e+00 1.350000000000e+01 0.000000000000e+00 0.000000000000e+00 0.000000000000e+00
8.990000000000e+02 0.000000000000e+00 1.450000000000e+01 0.000000000000e+00 0.000000000000e+00 0.000000000000e+00
9.000000000000e+02 0.000000000000e+00 1.450000000000e+01 0.000000000000e+00 0.000000000000e+00 0.000000000000e+00
8.990000000000e+02 0.000000000000e+00 1.550000000000e+01 0.000000000000e+00 0.000000000000e+00 0.000000000000e+00
9.000000000000e+02 0.000000000000e+00 1.550000000000e+01 0.000000000000e+00 0.000000000000e+00 0.000000000000e+00
8.990000000000e+02 0.000000000000e+00 1.650000000000e+01 0.000000000000e+00 0.000000000000e+00 0.000000000000e+00
9.000000000000e+02 0.000000000000e+00 1.650000000000e+01 0.000000000000e+00 0.000000000000e+00 0.000000000000e+00
8.990000000000e+02 0.000000000000e+00 1.750000000000e+01 0.000000000000e+00 0.000000000000e+00 0.000000000000e+00
9.000000000000e+02 0.000000000000e+00 1.750000000000e+01 0.000000000000e+00 0.000000000000e+00 0.000000000000e+00
8.990000000000e+02 0.000000000000e+00 1.850000000000e+01 0.000000000000e+00 0.000000000000e+00 0.000000000000e+00
9.000000000000e+02 0.000000000000e+00 1.850000000000e+01 0.000000000000e+00 0.000000000000e+00 0.000000000000e+00
8.990000000000e+02 0.000000000000e+00 1.950000000000e+01 0.000000000000e+00 0.000000000000e+00 0.000000000000e+00
9.000000000000e+02 0.000000000000e+00 1.950000000000e+01 0.000000000000e+00 0.000000000000e+00 0.000000000000e+00
8.990000000000e+02 0.000000000000e+00 2.050000000000e+01 0.000000000000e+00 0.000000000000e+00 0.000000000000e+00
9.000000000000e+02 0.000000000000e+00 2.050000000000e+01 0.000000000000e+00 0.000000000000e+00 0.000000000000e+00
8.990000000000e+02 0.000000000000e+00 2.150000000000e+01 0.000000000000e+00 0.000000000000e+00 0.000000000000e+00
9.000000000000e+02 0.000000000000e+00 2.150000000000e+01 0.000000000000e+00 0.000000000000e+00 0.000000000000e+00
8.990000000000e+02 0.000000000000e+00 2.250000000000e+01 0.000000000000e+00 0.000000000000e+00 0.000000000000e+00
9.000000000000e+02 0.000000000000e+00 2.250000000000e+01 0.000000000000e+00 0.000000000000e+00 0.000000000000e+00
8.990000000000e+02 0.000000000000e+00 2.350000000000e+01 0.000000000000e+00 0.000000000000e+00 0.000000000000e+00
9.000000000000e+02 0.000000000000e+00 2.350000000000e+01 0.000000000000e+00 0.000000000000e+00 0.000000000000e+00
8.990000000000e+02 0.000000000000e+00 2.450000000000e+01 0.000000000000e+00 0.000000000000e+00 0.000000000000e+00
9.000000000000e+02 0.000000000000e+00 2.450000000000e+01 0.000000000000e+00 0.000000000000e+00 0.000000000000e+00
8.990000000000e+02 0.000000000000e+00 2.550000000000e+01 0.000000000000e+00 0.000000000000e+00 0.000000000000e+00
9.000000000000e+02 0.000000000000e+00 2.550000000000e+01 0.000000000000e+00 0.000000000000e+00 0.000000000000e+00
8.990000000000e+02 0.000000000000e+00 2.650000000000e+01 0.000000000000e+00 0.000000000000e+00 0.000000000000e+00
9.000000000000e+02 0.000000000000e+00 2.650000000000e+01 0.000000000000e+00 0.000000000000e+00 0.000000000000e+00
8.990000000000e+02 0.000000000000e+00 2.750000000000e+01 0.000000000000e+00 0.000000000000e+00 0.000000000000e+00
9.000000000000e+02 0.000000000000e+00 2.750000000000e+01 0.000000000000e+00 0.000000000000e+00 0.000000000000e+00
8.990000000000e+02 0.000000000000e+00 2.850000000000e+01 0.000000000000e+00 0.000000000000e+00 0.000000000000e+00
9.000000000000e+02 0.000000000000e+00 2.850000000000e+01 0.000000000000e+00 0.000000000000e+00 0.000000000000e+00
8.990000000000e+02 0.000000000000e+00 2.950000000000e+01 0.000000000000e+00 0.000000000000e+00 0.000000000000e+00
9.000000000000e+02 0.000000000000e+00 2.950000000000e+01 0.000000000000e+00 0.000000000000e+00 0.000000000000e+00
VARIABLES = "X","Y","Z",VELOCITY1_X,VELOCITY1_Y,VELOCITY1_Z
ZONE T="1.797693134862e+308s", 
8.990000000000e+02 0.000000000000e+00 5.000000000000e-01 1.293459482235e-06 -4.526557188979e-10 0.000000000000e+00
9.000000000000e+02 0.000000000000e+00 5.000000000000e-01 1.294359286099e-06 -4.495559917801e-10 0.000000000000e+00
8.990000000000e+02 0.000000000000e+00 1.500000000000e+00 2.475780102016e-08 -9.139834193465e-10 0.000000000000e+00
9.000000000000e+02 0.000000000000e+00 1.500000000000e+00 2.477503040257e-08 -9.077248748684e-10 0.000000000000e+00
8.990000000000e+02 0.000000000000e+00 2.500000000000e+00 3.795195733439e-09 -9.240081780857e-10 0.000000000000e+00
9.000000000000e+02 0.000000000000e+00 2.500000000000e+00 3.797850187208e-09 -9.176813827811e-10 0.000000000000e+00
8.990000000000e+02 0.000000000000e+00 3.500000000000e+00 5.831461797386e-08 -9.462502767182e-10 0.000000000000e+00
9.000000000000e+02 0.000000000000e+00 3.500000000000e+00 5.835614361516e-08 -9.397777252910e-10 0.000000000000e+00
8.990000000000e+02 0.000000000000e+00 4.500000000000e+00 1.423379041895e-08 -9.722639656363e-10 0.000000000000e+00
9.000000000000e+02 0.000000000000e+00 4.500000000000e+00 1.424394455318e-08 -9.656214165637e-10 0.000000000000e+00
8.990000000000e+02 0.000000000000e+00 5.500000000000e+00 9.612232689585e-07 -1.323944557441e-09 0.000000000000e+00
9.000000000000e+02 0.000000000000e+00 5.500000000000e+00 9.619123883626e-07 -1.315028109010e-09 0.000000000000e+00
8.990000000000e+02 0.000000000000e+00 6.500000000000e+00 3.040936359727e-09 -1.671623885190e-09 0.000000000000e+00
9.000000000000e+02 0.000000000000e+00 6.500000000000e+00 3.043127773977e-09 -1.660460103033e-09 0.000000000000e+00
8.990000000000e+02 0.000000000000e+00 7.500000000000e+00 7.813648265736e-10 -1.673066577483e-09 0.000000000000e+00
9.000000000000e+02 0.000000000000e+00 7.500000000000e+00 7.819613226349e-10 -1.661894311177e-09 0.000000000000e+00
8.990000000000e+02 0.000000000000e+00 8.500000000000e+00 2.164285530705e-08 -1.682896947304e-09 0.000000000000e+00
9.000000000000e+02 0.000000000000e+00 8.500000000000e+00 2.166176647738e-08 -1.671684995870e-09 0.000000000000e+00
8.990000000000e+02 0.000000000000e+00 9.500000000000e+00 7.647215259263e-07 -2.029252402666e-09 0.000000000000e+00
9.000000000000e+02 0.000000000000e+00 9.500000000000e+00 7.653927918996e-07 -2.016662276450e-09 0.000000000000e+00
8.990000000000e+02 0.000000000000e+00 1.050000000000e+01 4.489894671113e-08 -2.385908902456e-09 0.000000000000e+00
9.000000000000e+02 0.000000000000e+00 1.050000000000e+01 4.493838086190e-08 -2.371900390321e-09 0.000000000000e+00
8.990000000000e+02 0.000000000000e+00 1.150000000000e+01 2.323581632131e-08 -2.416035105798e-09 0.000000000000e+00
9.000000000000e+02 0.000000000000e+00 1.150000000000e+01 2.325630547465e-08 -2.401908485586e-09 0.000000000000e+00
8.990000000000e+02 0.000000000000e+00 1.250000000000e+01 1.810929047917e-10 -2.426464025851e-09 0.000000000000e+00
9.000000000000e+02 0.000000000000e+00 1.250000000000e+01 1.812698722468e-10 -2.412297650220e-09 0.000000000000e+00
8.990000000000e+02 0.000000000000e+00 1.350000000000e+01 5.995365057153e-07 -2.914850226862e-09 0.000000000000e+00
9.000000000000e+02 0.000000000000e+00 1.350000000000e+01 6.005158848895e-07 -2.902318369833e-09 0.000000000000e+00
8.990000000000e+02 0.000000000000e+00 1.450000000000e+01 2.234461099711e-08 -3.421344541586e-09 0.000000000000e+00
9.000000000000e+02 0.000000000000e+00 1.450000000000e+01 2.238113182697e-08 -3.410508930335e-09 0.000000000000e+00
8.990000000000e+02 0.000000000000e+00 1.550000000000e+01 1.170442302440e-08 -3.449182519848e-09 0.000000000000e+00
9.000000000000e+02 0.000000000000e+00 1.550000000000e+01 1.172363057051e-08 -3.438442237378e-09 0.000000000000e+00
8.990000000000e+02 0.000000000000e+00 1.650000000000e+01 4.766843626598e-08 -3.498052413946e-09 0.000000000000e+00
9.000000000000e+02 0.000000000000e+00 1.650000000000e+01 4.774716137840e-08 -3.487486537250e-09 0.000000000000e+00
8.990000000000e+02 0.000000000000e+00 1.750000000000e+01 1.793717937930e-08 -3.552140921569e-09 0.000000000000e+00
9.000000000000e+02 0.000000000000e+00 1.750000000000e+01 1.796686241176e-08 -3.541770014149e-09 0.000000000000e+00
8.990000000000e+02 0.000000000000e+00 1.850000000000e+01 3.452100803274e-09 -3.569857138088e-09 0.000000000000e+00
9.000000000000e+02 0.000000000000e+00 1.850000000000e+01 3.457851061781e-09 -3.559551808300e-09 0.000000000000e+00
8.990000000000e+02 0.000000000000e+00 1.950000000000e+01 1.184589027366e-08 -3.582816396386e-09 0.000000000000e+00
9.000000000000e+02 0.000000000000e+00 1.950000000000e+01 1.186603942187e-08 -3.572565410520e-09 0.000000000000e+00
8.990000000000e+02 0.000000000000e+00 2.050000000000e+01 1.568351198191e-08 -3.606281011994e-09 0.000000000000e+00
9.000000000000e+02 0.000000000000e+00 2.050000000000e+01 1.571035795298e-08 -3.596131694488e-09 0.000000000000e+00
8.990000000000e+02 0.000000000000e+00 2.150000000000e+01 6.117829634755e-08 -3.672094542417e-09 0.000000000000e+00
9.000000000000e+02 0.000000000000e+00 2.150000000000e+01 6.128348324844e-08 -3.662237195201e-09 0.000000000000e+00
8.990000000000e+02 0.000000000000e+00 2.250000000000e+01 5.156190035744e-07 -4.166525552532e-09 0.000000000000e+00
9.000000000000e+02 0.000000000000e+00 2.250000000000e+01 5.165064980743e-07 -4.158874569109e-09 0.000000000000e+00
8.990000000000e+02 0.000000000000e+00 2.350000000000e+01 1.542452594494e-07 -4.740790287847e-09 0.000000000000e+00
9.000000000000e+02 0.000000000000e+00 2.350000000000e+01 1.545107860646e-07 -4.735703653708e-09 0.000000000000e+00
8.990000000000e+02 0.000000000000e+00 2.450000000000e+01 3.099798208738e-09 -4.875720299680e-09 0.000000000000e+00
9.000000000000e+02 0.000000000000e+00 2.450000000000e+01 3.105143737360e-09 -4.871237343978e-09 0.000000000000e+00
8.990000000000e+02 0.000000000000e+00 2.550000000000e+01 3.405412481006e-07 -5.174204365412e-09 0.000000000000e+00
9.000000000000e+02 0.000000000000e+00 2.550000000000e+01 3.411354020134e-07 -5.171176052033e-09 0.000000000000e+00
8.990000000000e+02 0.000000000000e+00 2.650000000000e+01 1.439167591620e-09 -5.471264578881e-09 0.000000000000e+00
9.000000000000e+02 0.000000000000e+00 2.650000000000e+01 1.441682001606e-09 -5.469684729303e-09 0.000000000000e+00
8.990000000000e+02 0.000000000000e+00 2.750000000000e+01 7.285888784020e-08 -5.536523078473e-09 0.000000000000e+00
9.000000000000e+02 0.000000000000e+00 2.750000000000e+01 7.298748149154e-08 -5.535288412619e-09 0.000000000000e+00
8.990000000000e+02 0.000000000000e+00 2.850000000000e+01 9.459883370060e-08 -5.683629081769e-09 0.000000000000e+00
9.000000000000e+02 0.000000000000e+00 2.850000000000e+01 9.476582458805e-08 -5.683173485920e-09 0.000000000000e+00
8.990000000000e+02 0.000000000000e+00 2.950000000000e+01 1.636853174143e-09 -5.768172262224e-09 0.000000000000e+00
9.000000000000e+02 0.000000000000e+00 2.950000000000e+01 1.639742777802e-09 -5.768164640248e-09 0.000000000000e+00
