 TITLE = "Profiles along polylines"
 VARIABLES = "DIST" "HEAD" "VELOCITY_X1" "VELOCITY_Y1" "VELOCITY_Z1" 
 ZONE T="TIME=0.000000000000e+00"
0.000000000000e+00 3.000000000000e+01 0.000000000000e+00 0.000000000000e+00 0.000000000000e+00 
1.000000000000e+00 3.000000000000e+01 0.000000000000e+00 0.000000000000e+00 0.000000000000e+00 
2.000000000000e+00 3.000000000000e+01 0.000000000000e+00 0.000000000000e+00 0.000000000000e+00 
3.000000000000e+00 3.000000000000e+01 0.000000000000e+00 0.000000000000e+00 0.000000000000e+00 
4.000000000000e+00 3.000000000000e+01 0.000000000000e+00 0.000000000000e+00 0.000000000000e+00 
5.000000000000e+00 3.000000000000e+01 0.000000000000e+00 0.000000000000e+00 0.000000000000e+00 
6.000000000000e+00 3.000000000000e+01 0.000000000000e+00 0.000000000000e+00 0.000000000000e+00 
7.000000000000e+00 3.000000000000e+01 0.000000000000e+00 0.000000000000e+00 0.000000000000e+00 
8.000000000000e+00 3.000000000000e+01 0.000000000000e+00 0.000000000000e+00 0.000000000000e+00 
9.000000000000e+00 3.000000000000e+01 0.000000000000e+00 0.000000000000e+00 0.000000000000e+00 
1.000000000000e+01 3.000000000000e+01 0.000000000000e+00 0.000000000000e+00 0.000000000000e+00 
1.100000000000e+01 3.000000000000e+01 0.000000000000e+00 0.000000000000e+00 0.000000000000e+00 
1.200000000000e+01 3.000000000000e+01 0.000000000000e+00 0.000000000000e+00 0.000000000000e+00 
1.300000000000e+01 3.000000000000e+01 0.000000000000e+00 0.000000000000e+00 0.000000000000e+00 
1.400000000000e+01 3.000000000000e+01 0.000000000000e+00 0.000000000000e+00 0.000000000000e+00 
1.500000000000e+01 3.000000000000e+01 0.000000000000e+00 0.000000000000e+00 0.000000000000e+00 
1.600000000000e+01 3.000000000000e+01 0.000000000000e+00 0.000000000000e+00 0.000000000000e+00 
1.700000000000e+01 3.000000000000e+01 0.000000000000e+00 0.000000000000e+00 0.000000000000e+00 
1.800000000000e+01 3.000000000000e+01 0.000000000000e+00 0.000000000000e+00 0.000000000000e+00 
1.900000000000e+01 3.000000000000e+01 0.000000000000e+00 0.000000000000e+00 0.000000000000e+00 
2.000000000000e+01 3.000000000000e+01 0.000000000000e+00 0.000000000000e+00 0.000000000000e+00 
2.100000000000e+01 3.000000000000e+01 0.000000000000e+00 0.000000000000e+00 0.000000000000e+00 
2.200000000000e+01 3.000000000000e+01 0.000000000000e+00 0.000000000000e+00 0.000000000000e+00 
2.300000000000e+01 3.000000000000e+01 0.000000000000e+00 0.000000000000e+00 0.000000000000e+00 
2.400000000000e+01 3.000000000000e+01 0.000000000000e+00 0.000000000000e+00 0.000000000000e+00 
2.500000000000e+01 3.000000000000e+01 0.000000000000e+00 0.000000000000e+00 0.000000000000e+00 
2.600000000000e+01 3.000000000000e+01 0.000000000000e+00 0.000000000000e+00 0.000000000000e+00 
2.700000000000e+01 3.000000000000e+01 0.000000000000e+00 0.000000000000e+00 0.000000000000e+00 
2.800000000000e+01 3.000000000000e+01 0.000000000000e+00 0.000000000000e+00 0.000000000000e+00 
2.900000000000e+01 3.000000000000e+01 0.000000000000e+00 0.000000000000e+00 0.000000000000e+00 
3.000000000000e+01 3.000000000000e+01 0.000000000000e+00 0.000000000000e+00 0.000000000000e+00 
 TITLE = "Profiles along polylines"
 VARIABLES = "DIST" "HEAD" "VELOCITY_X1" "VELOCITY_Y1" "VELOCITY_Z1" 
 ZONE T="TIME=1.797693134862e+308"
0.000000000000e+00 3.009776780214e+01 1.293909033582e-06 -4.499081779641e-10 0.000000000000e+00 
1.000000000000e+00 3.009776813385e+01 6.593389260831e-07 -6.791720829269e-10 0.000000000000e+00 
2.000000000000e+00 3.009780312663e+01 1.428389804325e-08 -9.134181165446e-10 0.000000000000e+00 
3.000000000000e+00 3.009803399944e+01 3.106840272751e-08 -9.294567024373e-10 0.000000000000e+00 
4.000000000000e+00 3.009804940967e+01 3.628963027898e-08 -9.534446674418e-10 0.000000000000e+00 
5.000000000000e+00 3.009811428997e+01 4.879058012945e-07 -1.141208790818e-09 0.000000000000e+00 
6.000000000000e+00 3.009811559889e+01 4.823082691525e-07 -1.488885161877e-09 0.000000000000e+00 
7.000000000000e+00 3.009863823957e+01 1.916186765501e-09 -1.662446507376e-09 0.000000000000e+00 
8.000000000000e+00 3.010068394044e+01 1.122132770817e-08 -1.668061705953e-09 0.000000000000e+00 
9.000000000000e+00 3.010075917657e+01 3.933590151738e-07 -1.845526792656e-09 0.000000000000e+00 
1.000000000000e+01 3.010076174633e+01 4.049927266300e-07 -2.195794437261e-09 0.000000000000e+00 
1.100000000000e+01 3.010081322526e+01 3.408780427075e-08 -2.388505412865e-09 0.000000000000e+00 
1.200000000000e+01 3.010091399177e+01 1.171911356019e-08 -2.408713073500e-09 0.000000000000e+00 
1.300000000000e+01 3.011402154750e+01 3.001092906787e-07 -2.658828060907e-09 0.000000000000e+00 
1.400000000000e+01 3.011402664028e+01 3.111995057609e-07 -3.157745748172e-09 0.000000000000e+00 
1.500000000000e+01 3.011418720421e+01 1.704267386905e-08 -3.425706573360e-09 0.000000000000e+00 
1.600000000000e+01 3.011449640605e+01 2.971510508347e-08 -3.464180129723e-09 0.000000000000e+00 
1.700000000000e+01 3.011457347351e+01 3.283403564240e-08 -3.515823123621e-09 0.000000000000e+00 
1.800000000000e+01 3.011478152181e+01 1.070754124971e-08 -3.551841013993e-09 0.000000000000e+00 
1.900000000000e+01 3.011586888958e+01 7.659487143198e-09 -3.567231908529e-09 0.000000000000e+00 
2.000000000000e+01 3.011618779732e+01 1.378044821064e-08 -3.585512975550e-09 0.000000000000e+00 
2.100000000000e+01 3.011643046220e+01 3.846788191353e-08 -3.630326453265e-09 0.000000000000e+00 
2.200000000000e+01 3.011649385122e+01 2.886507846277e-07 -3.911555578683e-09 0.000000000000e+00 
2.300000000000e+01 3.011650239269e+01 3.352235127925e-07 -4.448017053813e-09 0.000000000000e+00 
2.400000000000e+01 3.011653490349e+01 7.874226399080e-08 -4.804017979134e-09 0.000000000000e+00 
2.500000000000e+01 3.011819922221e+01 1.719722285156e-07 -5.021636645485e-09 0.000000000000e+00 
2.600000000000e+01 3.011821532458e+01 1.711406381860e-07 -5.320694402886e-09 0.000000000000e+00 
2.700000000000e+01 3.012224586709e+01 3.718244095657e-08 -5.502647990474e-09 0.000000000000e+00 
2.800000000000e+01 3.012232651437e+01 8.380328303925e-08 -5.609327888894e-09 0.000000000000e+00 
2.900000000000e+01 3.012239028736e+01 4.816051681846e-08 -5.725695629258e-09 0.000000000000e+00 
3.000000000000e+01 3.012613102885e+01 1.638304791852e-09 -5.768165514656e-09 0.000000000000e+00 
