VARIABLES = "X","Y","Z",VELOCITY1_X,VELOCITY1_Y,VELOCITY1_Z
ZONE T="0.000000000000e+00s", 
8.990000000000e+02 0.000000000000e+00 5.000000000000e-01 0.000000000000e+00 0.000000000000e+00 0.000000000000e+00
9.000000000000e+02 0.000000000000e+00 5.000000000000e-01 0.000000000000e+00 0.000000000000e+00 0.000000000000e+00
8.990000000000e+02 0.000000000000e+00 1.500000000000e+00 0.000000000000e+00 0.000000000000e+00 0.000000000000e+00
9.000000000000e+02 0.000000000000e+00 1.500000000000e+00 0.000000000000e+00 0.000000000000e+00 0.000000000000e+00
8.990000000000e+02 0.000000000000e+00 2.500000000000e+00 0.000000000000e+00 0.000000000000e+00 0.000000000000e+00
9.000000000000e+02 0.000000000000e+00 2.500000000000e+00 0.000000000000e+00 0.000000000000e+00 0.000000000000e+00
8.990000000000e+02 0.000000000000e+00 3.500000000000e+00 0.000000000000e+00 0.000000000000e+00 0.000000000000e+00
9.000000000000e+02 0.000000000000e+00 3.500000000000e+00 0.000000000000e+00 0.000000000000e+00 0.000000000000e+00
8.990000000000e+02 0.000000000000e+00 4.500000000000e+00 0.000000000000e+00 0.000000000000e+00 0.000000000000e+00
9.000000000000e+02 0.000000000000e+00 4.500000000000e+00 0.000000000000e+00 0.000000000000e+00 0.000000000000e+00
8.990000000000e+02 0.000000000000e+00 5.500000000000e+00 0.000000000000e+00 0.000000000000e+00 0.000000000000e+00
9.000000000000e+02 0.000000000000e+00 5.500000000000e+00 0.000000000000e+00 0.000000000000e+00 0.000000000000e+00
8.990000000000e+02 0.000000000000e+00 6.500000000000e+00 0.000000000000e+00 0.000000000000e+00 0.000000000000e+00
9.000000000000e+02 0.000000000000e+00 6.500000000000e+00 0.000000000000e+00 0.000000000000e+00 0.000000000000e+00
8.990000000000e+02 0.000000000000e+00 7.500000000000e+00 0.000000000000e+00 0.000000000000e+00 0.000000000000e+00
9.000000000000e+02 0.000000000000e+00 7.500000000000e+00 0.000000000000e+00 0.000000000000e+00 0.000000000000e+00
8.990000000000e+02 0.000000000000e+00 8.500000000000e+00 0.000000000000e+00 0.000000000000e+00 0.000000000000e+00
9.000000000000e+02 0.000000000000e+00 8.500000000000e+00 0.000000000000e+00 0.000000000000e+00 0.000000000000e+00
8.990000000000e+02 0.000000000000e+00 9.500000000000e+00 0.000000000000e+00 0.000000000000e+00 0.000000000000e+00
9.000000000000e+02 0.000000000000e+00 9.500000000000e+00 0.000000000000e+00 0.000000000000e+00 0.000000000000e+00
8.990000000000e+02 0.000000000000e+00 1.050000000000e+01 0.000000000000e+00 0.000000000000e+00 0.000000000000e+00
9.000000000000e+02 0.000000000000e+00 1.050000000000e+01 0.000000000000e+00 0.000000000000e+00 0.000000000000e+00
8.990000000000e+02 0.000000000000e+00 1.150000000000e+01 0.000000000000e+00 0.000000000000e+00 0.000000000000e+00
9.000000000000e+02 0.000000000000e+00 1.150000000000e+01 0.000000000000e+00 0.000000000000e+00 0.000000000000e+00
8.990000000000e+02 0.000000000000e+00 1.250000000000e+01 0.000000000000e+00 0.000000000000e+00 0.000000000000e+00
9.000000000000e+02 0.000000000000e+00 1.250000000000e+01 0.000000000000e+00 0.000000000000e+00 0.000000000000e+00
8.990000000000e+02 0.000000000000e+00 1.350000000000e+01 0.000000000000e+00 0.000000000000e+00 0.000000000000e+00
9.000000000000e+02 0.000000000000e+00 1.350000000000e+01 0.000000000000e+00 0.000000000000e+00 0.000000000000e+00
8.990000000000e+02 0.000000000000e+00 1.450000000000e+01 0.000000000000e+00 0.000000000000e+00 0.000000000000e+00
9.000000000000e+02 0.000000000000e+00 1.450000000000e+01 0.000000000000e+00 0.000000000000e+00 0.000000000000e+00
8.990000000000e+02 0.000000000000e+00 1.550000000000e+01 0.000000000000e+00 0.000000000000e+00 0.000000000000e+00
9.000000000000e+02 0.000000000000e+00 1.550000000000e+01 0.000000000000e+00 0.000000000000e+00 0.000000000000e+00
8.990000000000e+02 0.000000000000e+00 1.650000000000e+01 0.000000000000e+00 0.000000000000e+00 0.000000000000e+00
9.000000000000e+02 0.000000000000e+00 1.650000000000e+01 0.000000000000e+00 0.000000000000e+00 0.000000000000e+00
8.990000000000e+02 0.000000000000e+00 1.750000000000e+01 0.000000000000e+00 0.000000000000e+00 0.000000000000e+00
9.000000000000e+02 0.000000000000e+00 1.750000000000e+01 0.000000000000e+00 0.000000000000e+00 0.000000000000e+00
8.990000000000e+02 0.000000000000e+00 1.850000000000e+01 0.000000000000e+00 0.000000000000e+00 0.000000000000e+00
9.000000000000e+02 0.000000000000e+00 1.850000000000e+01 0.000000000000e+00 0.000000000000e+00 0.000000000000e+00
8.990000000000e+02 0.000000000000e+00 1.950000000000e+01 0.000000000000e+00 0.000000000000e+00 0.000000000000e+00
9.000000000000e+02 0.000000000000e+00 1.950000000000e+01 0.000000000000e+00 0.000000000000e+00 0.000000000000e+00
8.990000000000e+02 0.000000000000e+00 2.050000000000e+01 0.000000000000e+00 0.000000000000e+00 0.000000000000e+00
9.000000000000e+02 0.000000000000e+00 2.050000000000e+01 0.000000000000e+00 0.000000000000e+00 0.000000000000e+00
8.990000000000e+02 0.000000000000e+00 2.150000000000e+01 0.000000000000e+00 0.000000000000e+00 0.000000000000e+00
9.000000000000e+02 0.000000000000e+00 2.150000000000e+01 0.000000000000e+00 0.000000000000e+00 0.000000000000e+00
8.990000000000e+02 0.000000000000e+00 2.250000000000e+01 0.000000000000e+00 0.000000000000e+00 0.000000000000e+00
9.000000000000e+02 0.000000000000e+00 2.250000000000e+01 0.000000000000e+00 0.000000000000e+00 0.000000000000e+00
8.990000000000e+02 0.000000000000e+00 2.350000000000e+01 0.000000000000e+00 0.000000000000e+00 0.000000000000e+00
9.000000000000e+02 0.000000000000e+00 2.350000000000e+01 0.000000000000e+00 0.000000000000e+00 0.000000000000e+00
8.990000000000e+02 0.000000000000e+00 2.450000000000e+01 0.000000000000e+00 0.000000000000e+00 0.000000000000e+00
9.000000000000e+02 0.000000000000e+00 2.450000000000e+01 0.000000000000e+00 0.000000000000e+00 0.000000000000e+00
8.990000000000e+02 0.000000000000e+00 2.550000000000e+01 0.000000000000e+00 0.000000000000e+00 0.000000000000e+00
9.000000000000e+02 0.000000000000e+00 2.550000000000e+01 0.000000000000e+00 0.000000000000e+00 0.000000000000e+00
8.990000000000e+02 0.000000000000e+00 2.650000000000e+01 0.000000000000e+00 0.000000000000e+00 0.000000000000e+00
9.000000000000e+02 0.000000000000e+00 2.650000000000e+01 0.000000000000e+00 0.000000000000e+00 0.000000000000e+00
8.990000000000e+02 0.000000000000e+00 2.750000000000e+01 0.000000000000e+00 0.000000000000e+00 0.000000000000e+00
9.000000000000e+02 0.000000000000e+00 2.750000000000e+01 0.000000000000e+00 0.000000000000e+00 0.000000000000e+00
8.990000000000e+02 0.000000000000e+00 2.850000000000e+01 0.000000000000e+00 0.000000000000e+00 0.000000000000e+00
9.000000000000e+02 0.000000000000e+00 2.850000000000e+01 0.000000000000e+00 0.000000000000e+00 0.000000000000e+00
8.990000000000e+02 0.000000000000e+00 2.950000000000e+01 0.000000000000e+00 0.000000000000e+00 0.000000000000e+00
9.000000000000e+02 0.000000000000e+00 2.950000000000e+01 0.000000000000e+00 0.000000000000e+00 0.000000000000e+00
VARIABLES = "X","Y","Z",VELOCITY1_X,VELOCITY1_Y,VELOCITY1_Z
ZONE T="1.797693134862e+308s", 
8.990000000000e+02 0.000000000000e+00 5.000000000000e-01 1.087975715109e-08 -4.329860689553e-12 0.000000000000e+00
9.000000000000e+02 0.000000000000e+00 5.000000000000e-01 1.088837129752e-08 -4.304206660909e-12 0.000000000000e+00
8.990000000000e+02 0.000000000000e+00 1.500000000000e+00 4.728218649723e-07 -1.968369891058e-10 0.000000000000e+00
9.000000000000e+02 0.000000000000e+00 1.500000000000e+00 4.731962390346e-07 -1.956707602567e-10 0.000000000000e+00
8.990000000000e+02 0.000000000000e+00 2.500000000000e+00 1.414408948499e-07 -4.413085026087e-10 0.000000000000e+00
9.000000000000e+02 0.000000000000e+00 2.500000000000e+00 1.415528928732e-07 -4.386939889006e-10 0.000000000000e+00
8.990000000000e+02 0.000000000000e+00 3.500000000000e+00 2.315842284540e-08 -5.068360504798e-10 0.000000000000e+00
9.000000000000e+02 0.000000000000e+00 3.500000000000e+00 2.317676886668e-08 -5.038335984411e-10 0.000000000000e+00
8.990000000000e+02 0.000000000000e+00 4.500000000000e+00 1.446344910508e-08 -5.218425307106e-10 0.000000000000e+00
9.000000000000e+02 0.000000000000e+00 4.500000000000e+00 1.447493036857e-08 -5.187516819039e-10 0.000000000000e+00
8.990000000000e+02 0.000000000000e+00 5.500000000000e+00 4.477989446142e-08 -5.455457465765e-10 0.000000000000e+00
9.000000000000e+02 0.000000000000e+00 5.500000000000e+00 4.481554412765e-08 -5.423164206668e-10 0.000000000000e+00
8.990000000000e+02 0.000000000000e+00 6.500000000000e+00 1.654105873159e-08 -5.701052797462e-10 0.000000000000e+00
9.000000000000e+02 0.000000000000e+00 6.500000000000e+00 1.655424392983e-08 -5.667328675543e-10 0.000000000000e+00
8.990000000000e+02 0.000000000000e+00 7.500000000000e+00 4.397804635070e-08 -5.944151602236e-10 0.000000000000e+00
9.000000000000e+02 0.000000000000e+00 7.500000000000e+00 4.401319918778e-08 -5.909022362229e-10 0.000000000000e+00
8.990000000000e+02 0.000000000000e+00 8.500000000000e+00 2.522307859141e-08 -6.222439712182e-10 0.000000000000e+00
9.000000000000e+02 0.000000000000e+00 8.500000000000e+00 2.524326569542e-08 -6.185706916095e-10 0.000000000000e+00
8.990000000000e+02 0.000000000000e+00 9.500000000000e+00 9.770021711921e-07 -1.026117531070e-09 0.000000000000e+00
9.000000000000e+02 0.000000000000e+00 9.500000000000e+00 9.777855855632e-07 -1.020130375881e-09 0.000000000000e+00
8.990000000000e+02 0.000000000000e+00 1.050000000000e+01 1.081067217953e-08 -1.424208212241e-09 0.000000000000e+00
9.000000000000e+02 0.000000000000e+00 1.050000000000e+01 1.081935249209e-08 -1.415940712706e-09 0.000000000000e+00
8.990000000000e+02 0.000000000000e+00 1.150000000000e+01 3.185386680588e-09 -1.429913983830e-09 0.000000000000e+00
9.000000000000e+02 0.000000000000e+00 1.150000000000e+01 3.187980970314e-09 -1.421614816173e-09 0.000000000000e+00
8.990000000000e+02 0.000000000000e+00 1.250000000000e+01 8.688886353334e-08 -1.467992907460e-09 0.000000000000e+00
9.000000000000e+02 0.000000000000e+00 1.250000000000e+01 8.696200935043e-08 -1.459504355863e-09 0.000000000000e+00
8.990000000000e+02 0.000000000000e+00 1.350000000000e+01 1.322555587479e-06 -2.064602267444e-09 0.000000000000e+00
9.000000000000e+02 0.000000000000e+00 1.350000000000e+01 1.323670329159e-06 -2.053159028257e-09 0.000000000000e+00
8.990000000000e+02 0.000000000000e+00 1.450000000000e+01 3.131685844348e-07 -2.757065657239e-09 0.000000000000e+00
9.000000000000e+02 0.000000000000e+00 1.450000000000e+01 3.134325951875e-07 -2.742194329011e-09 0.000000000000e+00
8.990000000000e+02 0.000000000000e+00 1.550000000000e+01 5.951638271363e-08 -2.914951655549e-09 0.000000000000e+00
9.000000000000e+02 0.000000000000e+00 1.550000000000e+01 5.956661057526e-08 -2.899300604118e-09 0.000000000000e+00
8.990000000000e+02 0.000000000000e+00 1.650000000000e+01 1.325492259956e-09 -2.940831344926e-09 0.000000000000e+00
9.000000000000e+02 0.000000000000e+00 1.650000000000e+01 1.326637205745e-09 -2.925054243223e-09 0.000000000000e+00
8.990000000000e+02 0.000000000000e+00 1.750000000000e+01 2.890914425967e-09 -2.942940220998e-09 0.000000000000e+00
9.000000000000e+02 0.000000000000e+00 1.750000000000e+01 2.893814205926e-09 -2.927158286718e-09 0.000000000000e+00
8.990000000000e+02 0.000000000000e+00 1.850000000000e+01 7.793467159224e-07 -3.359252257696e-09 0.000000000000e+00
9.000000000000e+02 0.000000000000e+00 1.850000000000e+01 7.801752741063e-07 -3.342907726002e-09 0.000000000000e+00
8.990000000000e+02 0.000000000000e+00 1.950000000000e+01 6.811849406148e-08 -3.810385981143e-09 0.000000000000e+00
9.000000000000e+02 0.000000000000e+00 1.950000000000e+01 6.819095657244e-08 -3.793433509614e-09 0.000000000000e+00
8.990000000000e+02 0.000000000000e+00 2.050000000000e+01 2.109439789888e-08 -3.858033300107e-09 0.000000000000e+00
9.000000000000e+02 0.000000000000e+00 2.050000000000e+01 2.111692769885e-08 -3.841019253622e-09 0.000000000000e+00
8.990000000000e+02 0.000000000000e+00 2.150000000000e+01 1.848723302446e-10 -3.869520066768e-09 0.000000000000e+00
9.000000000000e+02 0.000000000000e+00 2.150000000000e+01 1.850980176096e-10 -3.852493234662e-09 0.000000000000e+00
8.990000000000e+02 0.000000000000e+00 2.250000000000e+01 1.609728353973e-08 -3.887724165323e-09 0.000000000000e+00
9.000000000000e+02 0.000000000000e+00 2.250000000000e+01 1.613352782642e-08 -3.870842057869e-09 0.000000000000e+00
8.990000000000e+02 0.000000000000e+00 2.350000000000e+01 4.325488813192e-09 -3.910686796936e-09 0.000000000000e+00
9.000000000000e+02 0.000000000000e+00 2.350000000000e+01 4.335302343185e-09 -3.893988365996e-09 0.000000000000e+00
8.990000000000e+02 0.000000000000e+00 2.450000000000e+01 3.470960482675e-09 -3.919648152249e-09 0.000000000000e+00
9.000000000000e+02 0.000000000000e+00 2.450000000000e+01 3.479007909877e-09 -3.903022979134e-09 0.000000000000e+00
8.990000000000e+02 0.000000000000e+00 2.550000000000e+01 6.335919060257e-08 -3.998322024041e-09 0.000000000000e+00
9.000000000000e+02 0.000000000000e+00 2.550000000000e+01 6.350947313388e-08 -3.982356313799e-09 0.000000000000e+00
8.990000000000e+02 0.000000000000e+00 2.650000000000e+01 2.438540230019e-08 -4.101747971673e-09 0.000000000000e+00
9.000000000000e+02 0.000000000000e+00 2.650000000000e+01 2.444333177043e-08 -4.086650299611e-09 0.000000000000e+00
8.990000000000e+02 0.000000000000e+00 2.750000000000e+01 8.937467225758e-10 -4.131650929047e-09 0.000000000000e+00
9.000000000000e+02 0.000000000000e+00 2.750000000000e+01 8.958969541458e-10 -4.116805030015e-09 0.000000000000e+00
8.990000000000e+02 0.000000000000e+00 2.850000000000e+01 6.360172986767e-07 -4.948974570687e-09 0.000000000000e+00
9.000000000000e+02 0.000000000000e+00 2.850000000000e+01 6.376628069386e-07 -4.941536470127e-09 0.000000000000e+00
8.990000000000e+02 0.000000000000e+00 2.950000000000e+01 1.720088632884e-09 -5.767402749915e-09 0.000000000000e+00
9.000000000000e+02 0.000000000000e+00 2.950000000000e+01 1.724539104625e-09 -5.767382741416e-09 0.000000000000e+00
