 TITLE = "Profiles along polylines"
 VARIABLES = "DIST" "HEAD" "VELOCITY_X1" "VELOCITY_Y1" "VELOCITY_Z1" 
 ZONE T="TIME=0.000000000000e+00"
0.000000000000e+00 3.000000000000e+01 0.000000000000e+00 0.000000000000e+00 0.000000000000e+00 
1.000000000000e+00 3.000000000000e+01 0.000000000000e+00 0.000000000000e+00 0.000000000000e+00 
2.000000000000e+00 3.000000000000e+01 0.000000000000e+00 0.000000000000e+00 0.000000000000e+00 
3.000000000000e+00 3.000000000000e+01 0.000000000000e+00 0.000000000000e+00 0.000000000000e+00 
4.000000000000e+00 3.000000000000e+01 0.000000000000e+00 0.000000000000e+00 0.000000000000e+00 
5.000000000000e+00 3.000000000000e+01 0.000000000000e+00 0.000000000000e+00 0.000000000000e+00 
6.000000000000e+00 3.000000000000e+01 0.000000000000e+00 0.000000000000e+00 0.000000000000e+00 
7.000000000000e+00 3.000000000000e+01 0.000000000000e+00 0.000000000000e+00 0.000000000000e+00 
8.000000000000e+00 3.000000000000e+01 0.000000000000e+00 0.000000000000e+00 0.000000000000e+00 
9.000000000000e+00 3.000000000000e+01 0.000000000000e+00 0.000000000000e+00 0.000000000000e+00 
1.000000000000e+01 3.000000000000e+01 0.000000000000e+00 0.000000000000e+00 0.000000000000e+00 
1.100000000000e+01 3.000000000000e+01 0.000000000000e+00 0.000000000000e+00 0.000000000000e+00 
1.200000000000e+01 3.000000000000e+01 0.000000000000e+00 0.000000000000e+00 0.000000000000e+00 
1.300000000000e+01 3.000000000000e+01 0.000000000000e+00 0.000000000000e+00 0.000000000000e+00 
1.400000000000e+01 3.000000000000e+01 0.000000000000e+00 0.000000000000e+00 0.000000000000e+00 
1.500000000000e+01 3.000000000000e+01 0.000000000000e+00 0.000000000000e+00 0.000000000000e+00 
1.600000000000e+01 3.000000000000e+01 0.000000000000e+00 0.000000000000e+00 0.000000000000e+00 
1.700000000000e+01 3.000000000000e+01 0.000000000000e+00 0.000000000000e+00 0.000000000000e+00 
1.800000000000e+01 3.000000000000e+01 0.000000000000e+00 0.000000000000e+00 0.000000000000e+00 
1.900000000000e+01 3.000000000000e+01 0.000000000000e+00 0.000000000000e+00 0.000000000000e+00 
2.000000000000e+01 3.000000000000e+01 0.000000000000e+00 0.000000000000e+00 0.000000000000e+00 
2.100000000000e+01 3.000000000000e+01 0.000000000000e+00 0.000000000000e+00 0.000000000000e+00 
2.200000000000e+01 3.000000000000e+01 0.000000000000e+00 0.000000000000e+00 0.000000000000e+00 
2.300000000000e+01 3.000000000000e+01 0.000000000000e+00 0.000000000000e+00 0.000000000000e+00 
2.400000000000e+01 3.000000000000e+01 0.000000000000e+00 0.000000000000e+00 0.000000000000e+00 
2.500000000000e+01 3.000000000000e+01 0.000000000000e+00 0.000000000000e+00 0.000000000000e+00 
2.600000000000e+01 3.000000000000e+01 0.000000000000e+00 0.000000000000e+00 0.000000000000e+00 
2.700000000000e+01 3.000000000000e+01 0.000000000000e+00 0.000000000000e+00 0.000000000000e+00 
2.800000000000e+01 3.000000000000e+01 0.000000000000e+00 0.000000000000e+00 0.000000000000e+00 
2.900000000000e+01 3.000000000000e+01 0.000000000000e+00 0.000000000000e+00 0.000000000000e+00 
3.000000000000e+01 3.000000000000e+01 0.000000000000e+00 0.000000000000e+00 0.000000000000e+00 
 TITLE = "Profiles along polylines"
 VARIABLES = "DIST" "HEAD" "VELOCITY_X1" "VELOCITY_Y1" "VELOCITY_Z1" 
 ZONE T="TIME=1.797693134862e+308"
0.000000000000e+00 3.001014411523e+01 1.136395032586e-08 -5.547519349123e-13 0.000000000000e+00 
1.000000000000e+00 3.001014416474e+01 2.526147901121e-07 -1.288779703765e-11 0.000000000000e+00 
2.000000000000e+00 3.001014421652e+01 3.208020758515e-07 -4.088387718269e-11 0.000000000000e+00 
3.000000000000e+00 3.001014460467e+01 8.596550209426e-08 -6.074736351079e-11 0.000000000000e+00 
4.000000000000e+00 3.001014732759e+01 1.965249141959e-08 -6.591320100444e-11 0.000000000000e+00 
5.000000000000e+00 3.001015181766e+01 3.095320998629e-08 -6.841235930153e-11 0.000000000000e+00 
6.000000000000e+00 3.001015333473e+01 3.204117175025e-08 -7.153842783466e-11 0.000000000000e+00 
7.000000000000e+00 3.001015762909e+01 3.162911525248e-08 -7.471560959882e-11 0.000000000000e+00 
8.000000000000e+00 3.001015931462e+01 3.616953923822e-08 -7.811873922174e-11 0.000000000000e+00 
9.000000000000e+00 3.001016239378e+01 5.238982156646e-07 -1.064304413027e-10 0.000000000000e+00 
1.000000000000e+01 3.001016252598e+01 5.163688133345e-07 -1.590426933954e-10 0.000000000000e+00 
1.100000000000e+01 3.001017917069e+01 7.325907825324e-09 -1.855449400856e-10 0.000000000000e+00 
1.200000000000e+01 3.001023594911e+01 4.726703438298e-08 -1.886844333116e-10 0.000000000000e+00 
1.300000000000e+01 3.001023809732e+01 7.396475612788e-07 -2.347378033545e-10 0.000000000000e+00 
1.400000000000e+01 3.001023830231e+01 8.584047756866e-07 -3.283066064676e-10 0.000000000000e+00 
1.500000000000e+01 3.001023948107e+01 1.955977513445e-07 -3.900681179718e-10 0.000000000000e+00 
1.600000000000e+01 3.001024606057e+01 3.194916374356e-08 -4.034674452128e-10 0.000000000000e+00 
1.700000000000e+01 3.001054476774e+01 2.257233540004e-09 -4.056132052367e-10 0.000000000000e+00 
1.800000000000e+01 3.001068341671e+01 4.207028295608e-07 -4.583932319243e-10 0.000000000000e+00 
1.900000000000e+01 3.001068406732e+01 4.558007974252e-07 -5.679475599002e-10 0.000000000000e+00 
2.000000000000e+01 3.001069317252e+01 4.801634153640e-08 -6.311321322697e-10 0.000000000000e+00 
2.100000000000e+01 3.001072316548e+01 1.148026588465e-08 -6.389173738782e-10 0.000000000000e+00 
2.200000000000e+01 3.001420124352e+01 1.056485656942e-08 -6.530780383554e-10 0.000000000000e+00 
2.300000000000e+01 3.001424614520e+01 1.327569895412e-08 -6.815855144042e-10 0.000000000000e+00 
2.400000000000e+01 3.001442149781e+01 5.112512102601e-09 -7.040610111814e-10 0.000000000000e+00 
2.500000000000e+01 3.001464498619e+01 4.418506944433e-08 -7.712640266295e-10 0.000000000000e+00 
2.600000000000e+01 3.001465938184e+01 5.804508838983e-08 -9.122700231528e-10 0.000000000000e+00 
2.700000000000e+01 3.001470402049e+01 1.675920394503e-08 -1.016510388044e-09 0.000000000000e+00 
2.800000000000e+01 3.001598375569e+01 4.439797874146e-07 -2.220168062643e-09 0.000000000000e+00 
2.900000000000e+01 3.001598971868e+01 4.445672499528e-07 -4.581569704871e-09 0.000000000000e+00 
3.000000000000e+01 3.001972726189e+01 2.398233333473e-09 -5.763233810835e-09 0.000000000000e+00 
