VARIABLES = "X","Y","Z",VELOCITY1_X,VELOCITY1_Y,VELOCITY1_Z
ZONE T="0.000000000000e+00s", 
4.990000000000e+02 0.000000000000e+00 5.000000000000e-01 0.000000000000e+00 0.000000000000e+00 0.000000000000e+00
5.000000000000e+02 0.000000000000e+00 5.000000000000e-01 0.000000000000e+00 0.000000000000e+00 0.000000000000e+00
4.990000000000e+02 0.000000000000e+00 1.500000000000e+00 0.000000000000e+00 0.000000000000e+00 0.000000000000e+00
5.000000000000e+02 0.000000000000e+00 1.500000000000e+00 0.000000000000e+00 0.000000000000e+00 0.000000000000e+00
4.990000000000e+02 0.000000000000e+00 2.500000000000e+00 0.000000000000e+00 0.000000000000e+00 0.000000000000e+00
5.000000000000e+02 0.000000000000e+00 2.500000000000e+00 0.000000000000e+00 0.000000000000e+00 0.000000000000e+00
4.990000000000e+02 0.000000000000e+00 3.500000000000e+00 0.000000000000e+00 0.000000000000e+00 0.000000000000e+00
5.000000000000e+02 0.000000000000e+00 3.500000000000e+00 0.000000000000e+00 0.000000000000e+00 0.000000000000e+00
4.990000000000e+02 0.000000000000e+00 4.500000000000e+00 0.000000000000e+00 0.000000000000e+00 0.000000000000e+00
5.000000000000e+02 0.000000000000e+00 4.500000000000e+00 0.000000000000e+00 0.000000000000e+00 0.000000000000e+00
4.990000000000e+02 0.000000000000e+00 5.500000000000e+00 0.000000000000e+00 0.000000000000e+00 0.000000000000e+00
5.000000000000e+02 0.000000000000e+00 5.500000000000e+00 0.000000000000e+00 0.000000000000e+00 0.000000000000e+00
4.990000000000e+02 0.000000000000e+00 6.500000000000e+00 0.000000000000e+00 0.000000000000e+00 0.000000000000e+00
5.000000000000e+02 0.000000000000e+00 6.500000000000e+00 0.000000000000e+00 0.000000000000e+00 0.000000000000e+00
4.990000000000e+02 0.000000000000e+00 7.500000000000e+00 0.000000000000e+00 0.000000000000e+00 0.000000000000e+00
5.000000000000e+02 0.000000000000e+00 7.500000000000e+00 0.000000000000e+00 0.000000000000e+00 0.000000000000e+00
4.990000000000e+02 0.000000000000e+00 8.500000000000e+00 0.000000000000e+00 0.000000000000e+00 0.000000000000e+00
5.000000000000e+02 0.000000000000e+00 8.500000000000e+00 0.000000000000e+00 0.000000000000e+00 0.000000000000e+00
4.990000000000e+02 0.000000000000e+00 9.500000000000e+00 0.000000000000e+00 0.000000000000e+00 0.000000000000e+00
5.000000000000e+02 0.000000000000e+00 9.500000000000e+00 0.000000000000e+00 0.000000000000e+00 0.000000000000e+00
4.990000000000e+02 0.000000000000e+00 1.050000000000e+01 0.000000000000e+00 0.000000000000e+00 0.000000000000e+00
5.000000000000e+02 0.000000000000e+00 1.050000000000e+01 0.000000000000e+00 0.000000000000e+00 0.000000000000e+00
4.990000000000e+02 0.000000000000e+00 1.150000000000e+01 0.000000000000e+00 0.000000000000e+00 0.000000000000e+00
5.000000000000e+02 0.000000000000e+00 1.150000000000e+01 0.000000000000e+00 0.000000000000e+00 0.000000000000e+00
4.990000000000e+02 0.000000000000e+00 1.250000000000e+01 0.000000000000e+00 0.000000000000e+00 0.000000000000e+00
5.000000000000e+02 0.000000000000e+00 1.250000000000e+01 0.000000000000e+00 0.000000000000e+00 0.000000000000e+00
4.990000000000e+02 0.000000000000e+00 1.350000000000e+01 0.000000000000e+00 0.000000000000e+00 0.000000000000e+00
5.000000000000e+02 0.000000000000e+00 1.350000000000e+01 0.000000000000e+00 0.000000000000e+00 0.000000000000e+00
4.990000000000e+02 0.000000000000e+00 1.450000000000e+01 0.000000000000e+00 0.000000000000e+00 0.000000000000e+00
5.000000000000e+02 0.000000000000e+00 1.450000000000e+01 0.000000000000e+00 0.000000000000e+00 0.000000000000e+00
4.990000000000e+02 0.000000000000e+00 1.550000000000e+01 0.000000000000e+00 0.000000000000e+00 0.000000000000e+00
5.000000000000e+02 0.000000000000e+00 1.550000000000e+01 0.000000000000e+00 0.000000000000e+00 0.000000000000e+00
4.990000000000e+02 0.000000000000e+00 1.650000000000e+01 0.000000000000e+00 0.000000000000e+00 0.000000000000e+00
5.000000000000e+02 0.000000000000e+00 1.650000000000e+01 0.000000000000e+00 0.000000000000e+00 0.000000000000e+00
4.990000000000e+02 0.000000000000e+00 1.750000000000e+01 0.000000000000e+00 0.000000000000e+00 0.000000000000e+00
5.000000000000e+02 0.000000000000e+00 1.750000000000e+01 0.000000000000e+00 0.000000000000e+00 0.000000000000e+00
4.990000000000e+02 0.000000000000e+00 1.850000000000e+01 0.000000000000e+00 0.000000000000e+00 0.000000000000e+00
5.000000000000e+02 0.000000000000e+00 1.850000000000e+01 0.000000000000e+00 0.000000000000e+00 0.000000000000e+00
4.990000000000e+02 0.000000000000e+00 1.950000000000e+01 0.000000000000e+00 0.000000000000e+00 0.000000000000e+00
5.000000000000e+02 0.000000000000e+00 1.950000000000e+01 0.000000000000e+00 0.000000000000e+00 0.000000000000e+00
4.990000000000e+02 0.000000000000e+00 2.050000000000e+01 0.000000000000e+00 0.000000000000e+00 0.000000000000e+00
5.000000000000e+02 0.000000000000e+00 2.050000000000e+01 0.000000000000e+00 0.000000000000e+00 0.000000000000e+00
4.990000000000e+02 0.000000000000e+00 2.150000000000e+01 0.000000000000e+00 0.000000000000e+00 0.000000000000e+00
5.000000000000e+02 0.000000000000e+00 2.150000000000e+01 0.000000000000e+00 0.000000000000e+00 0.000000000000e+00
4.990000000000e+02 0.000000000000e+00 2.250000000000e+01 0.000000000000e+00 0.000000000000e+00 0.000000000000e+00
5.000000000000e+02 0.000000000000e+00 2.250000000000e+01 0.000000000000e+00 0.000000000000e+00 0.000000000000e+00
4.990000000000e+02 0.000000000000e+00 2.350000000000e+01 0.000000000000e+00 0.000000000000e+00 0.000000000000e+00
5.000000000000e+02 0.000000000000e+00 2.350000000000e+01 0.000000000000e+00 0.000000000000e+00 0.000000000000e+00
4.990000000000e+02 0.000000000000e+00 2.450000000000e+01 0.000000000000e+00 0.000000000000e+00 0.000000000000e+00
5.000000000000e+02 0.000000000000e+00 2.450000000000e+01 0.000000000000e+00 0.000000000000e+00 0.000000000000e+00
4.990000000000e+02 0.000000000000e+00 2.550000000000e+01 0.000000000000e+00 0.000000000000e+00 0.000000000000e+00
5.000000000000e+02 0.000000000000e+00 2.550000000000e+01 0.000000000000e+00 0.000000000000e+00 0.000000000000e+00
4.990000000000e+02 0.000000000000e+00 2.650000000000e+01 0.000000000000e+00 0.000000000000e+00 0.000000000000e+00
5.000000000000e+02 0.000000000000e+00 2.650000000000e+01 0.000000000000e+00 0.000000000000e+00 0.000000000000e+00
4.990000000000e+02 0.000000000000e+00 2.750000000000e+01 0.000000000000e+00 0.000000000000e+00 0.000000000000e+00
5.000000000000e+02 0.000000000000e+00 2.750000000000e+01 0.000000000000e+00 0.000000000000e+00 0.000000000000e+00
4.990000000000e+02 0.000000000000e+00 2.850000000000e+01 0.000000000000e+00 0.000000000000e+00 0.000000000000e+00
5.000000000000e+02 0.000000000000e+00 2.850000000000e+01 0.000000000000e+00 0.000000000000e+00 0.000000000000e+00
4.990000000000e+02 0.000000000000e+00 2.950000000000e+01 0.000000000000e+00 0.000000000000e+00 0.000000000000e+00
5.000000000000e+02 0.000000000000e+00 2.950000000000e+01 0.000000000000e+00 0.000000000000e+00 0.000000000000e+00
VARIABLES = "X","Y","Z",VELOCITY1_X,VELOCITY1_Y,VELOCITY1_Z
ZONE T="1.797693134862e+308s", 
4.990000000000e+02 0.000000000000e+00 5.000000000000e-01 6.187360121824e-09 -6.189458988941e-12 0.000000000000e+00
5.000000000000e+02 0.000000000000e+00 5.000000000000e-01 6.199739586161e-09 -6.189375582115e-12 0.000000000000e+00
4.990000000000e+02 0.000000000000e+00 1.500000000000e+00 2.688949970715e-07 -2.813631822769e-10 0.000000000000e+00
5.000000000000e+02 0.000000000000e+00 1.500000000000e+00 2.694329932970e-07 -2.813594000720e-10 0.000000000000e+00
4.990000000000e+02 0.000000000000e+00 2.500000000000e+00 8.043745544490e-08 -6.307439271601e-10 0.000000000000e+00
5.000000000000e+02 0.000000000000e+00 2.500000000000e+00 8.059839207872e-08 -6.307352961353e-10 0.000000000000e+00
4.990000000000e+02 0.000000000000e+00 3.500000000000e+00 1.316979260496e-08 -7.243657459216e-10 0.000000000000e+00
5.000000000000e+02 0.000000000000e+00 3.500000000000e+00 1.319614232393e-08 -7.243558250125e-10 0.000000000000e+00
4.990000000000e+02 0.000000000000e+00 4.500000000000e+00 8.223976227967e-09 -7.457657662621e-10 0.000000000000e+00
5.000000000000e+02 0.000000000000e+00 4.500000000000e+00 8.240430591366e-09 -7.457555575002e-10 0.000000000000e+00
4.990000000000e+02 0.000000000000e+00 5.500000000000e+00 2.545703309250e-08 -7.794575547815e-10 0.000000000000e+00
5.000000000000e+02 0.000000000000e+00 5.500000000000e+00 2.550796737744e-08 -7.794468950433e-10 0.000000000000e+00
4.990000000000e+02 0.000000000000e+00 6.500000000000e+00 9.402655596574e-09 -8.143240699194e-10 0.000000000000e+00
5.000000000000e+02 0.000000000000e+00 6.500000000000e+00 9.421468432236e-09 -8.143129427225e-10 0.000000000000e+00
4.990000000000e+02 0.000000000000e+00 7.500000000000e+00 2.499431755213e-08 -8.487316698246e-10 0.000000000000e+00
5.000000000000e+02 0.000000000000e+00 7.500000000000e+00 2.504432653734e-08 -8.487200904711e-10 0.000000000000e+00
4.990000000000e+02 0.000000000000e+00 8.500000000000e+00 1.433394744968e-08 -8.880688188345e-10 0.000000000000e+00
5.000000000000e+02 0.000000000000e+00 8.500000000000e+00 1.436262710768e-08 -8.880567159359e-10 0.000000000000e+00
4.990000000000e+02 0.000000000000e+00 9.500000000000e+00 5.551460244827e-07 -1.457756670236e-09 0.000000000000e+00
5.000000000000e+02 0.000000000000e+00 9.500000000000e+00 5.562567772723e-07 -1.457737148996e-09 0.000000000000e+00
4.990000000000e+02 0.000000000000e+00 1.050000000000e+01 6.142213292918e-09 -2.019128904461e-09 0.000000000000e+00
5.000000000000e+02 0.000000000000e+00 1.050000000000e+01 6.154502857938e-09 -2.019101939102e-09 0.000000000000e+00
4.990000000000e+02 0.000000000000e+00 1.150000000000e+01 1.808069992467e-09 -2.027081142656e-09 0.000000000000e+00
5.000000000000e+02 0.000000000000e+00 1.150000000000e+01 1.811687771995e-09 -2.027054076071e-09 0.000000000000e+00
4.990000000000e+02 0.000000000000e+00 1.250000000000e+01 4.920585803964e-08 -2.078120032907e-09 0.000000000000e+00
5.000000000000e+02 0.000000000000e+00 1.250000000000e+01 4.930432266700e-08 -2.078092405600e-09 0.000000000000e+00
4.990000000000e+02 0.000000000000e+00 1.350000000000e+01 7.489086237952e-07 -2.876614622287e-09 0.000000000000e+00
5.000000000000e+02 0.000000000000e+00 1.350000000000e+01 7.504072511199e-07 -2.876578245897e-09 0.000000000000e+00
4.990000000000e+02 0.000000000000e+00 1.450000000000e+01 1.773321451710e-07 -3.803126461125e-09 0.000000000000e+00
5.000000000000e+02 0.000000000000e+00 1.450000000000e+01 1.776870014510e-07 -3.803079763082e-09 0.000000000000e+00
4.990000000000e+02 0.000000000000e+00 1.550000000000e+01 3.369883256398e-08 -4.014226017558e-09 0.000000000000e+00
5.000000000000e+02 0.000000000000e+00 1.550000000000e+01 3.376626687717e-08 -4.014177015661e-09 0.000000000000e+00
4.990000000000e+02 0.000000000000e+00 1.650000000000e+01 7.493350279967e-10 -4.048689157574e-09 0.000000000000e+00
5.000000000000e+02 0.000000000000e+00 1.650000000000e+01 7.508345948901e-10 -4.048639786914e-09 0.000000000000e+00
4.990000000000e+02 0.000000000000e+00 1.750000000000e+01 1.616360509773e-09 -4.051057038016e-09 0.000000000000e+00
5.000000000000e+02 0.000000000000e+00 1.750000000000e+01 1.619596421281e-09 -4.051007658701e-09 0.000000000000e+00
4.990000000000e+02 0.000000000000e+00 1.850000000000e+01 4.336596507176e-07 -4.486814041148e-09 0.000000000000e+00
5.000000000000e+02 0.000000000000e+00 1.850000000000e+01 4.345279736620e-07 -4.486764532191e-09 0.000000000000e+00
4.990000000000e+02 0.000000000000e+00 1.950000000000e+01 3.790209562025e-08 -4.958801424212e-09 0.000000000000e+00
5.000000000000e+02 0.000000000000e+00 1.950000000000e+01 3.797798765742e-08 -4.958751484810e-09 0.000000000000e+00
4.990000000000e+02 0.000000000000e+00 2.050000000000e+01 1.173358946407e-08 -5.008485016175e-09 0.000000000000e+00
5.000000000000e+02 0.000000000000e+00 2.050000000000e+01 1.175708408246e-08 -5.008435048659e-09 0.000000000000e+00
4.990000000000e+02 0.000000000000e+00 2.150000000000e+01 1.017014802225e-10 -5.020333087520e-09 0.000000000000e+00
5.000000000000e+02 0.000000000000e+00 2.150000000000e+01 1.019051965203e-10 -5.020283122027e-09 0.000000000000e+00
4.990000000000e+02 0.000000000000e+00 2.250000000000e+01 8.190034792669e-09 -5.028659636961e-09 0.000000000000e+00
5.000000000000e+02 0.000000000000e+00 2.250000000000e+01 8.206484956113e-09 -5.028610100554e-09 0.000000000000e+00
4.990000000000e+02 0.000000000000e+00 2.350000000000e+01 2.197757702376e-09 -5.039090173174e-09 0.000000000000e+00
5.000000000000e+02 0.000000000000e+00 2.350000000000e+01 2.202172243653e-09 -5.039041188086e-09 0.000000000000e+00
4.990000000000e+02 0.000000000000e+00 2.450000000000e+01 1.756659152351e-09 -5.043061623397e-09 0.000000000000e+00
5.000000000000e+02 0.000000000000e+00 2.450000000000e+01 1.760188182288e-09 -5.043012855172e-09 0.000000000000e+00
4.990000000000e+02 0.000000000000e+00 2.550000000000e+01 3.193060450186e-08 -5.076901772341e-09 0.000000000000e+00
5.000000000000e+02 0.000000000000e+00 2.550000000000e+01 3.199476124304e-08 -5.076854948238e-09 0.000000000000e+00
4.990000000000e+02 0.000000000000e+00 2.650000000000e+01 1.228573098333e-08 -5.121314730670e-09 0.000000000000e+00
5.000000000000e+02 0.000000000000e+00 2.650000000000e+01 1.231041641227e-08 -5.121270497479e-09 0.000000000000e+00
4.990000000000e+02 0.000000000000e+00 2.750000000000e+01 4.492014146673e-10 -5.134106569616e-09 0.000000000000e+00
5.000000000000e+02 0.000000000000e+00 2.750000000000e+01 4.501040642040e-10 -5.134063074405e-09 0.000000000000e+00
4.990000000000e+02 0.000000000000e+00 2.850000000000e+01 3.150566019398e-07 -5.451246226905e-09 0.000000000000e+00
5.000000000000e+02 0.000000000000e+00 2.850000000000e+01 3.156900350491e-07 -5.451224293218e-09 0.000000000000e+00
4.990000000000e+02 0.000000000000e+00 2.950000000000e+01 8.520507152099e-10 -5.768753945265e-09 0.000000000000e+00
5.000000000000e+02 0.000000000000e+00 2.950000000000e+01 8.537637959213e-10 -5.768753885031e-09 0.000000000000e+00
