 TITLE = "Profiles along polylines"
 VARIABLES = "DIST" "HEAD" "VELOCITY_X1" "VELOCITY_Y1" "VELOCITY_Z1" 
 ZONE T="TIME=0.000000000000e+00"
0.000000000000e+00 3.000000000000e+01 0.000000000000e+00 0.000000000000e+00 0.000000000000e+00 
1.000000000000e+00 3.000000000000e+01 0.000000000000e+00 0.000000000000e+00 0.000000000000e+00 
2.000000000000e+00 3.000000000000e+01 0.000000000000e+00 0.000000000000e+00 0.000000000000e+00 
3.000000000000e+00 3.000000000000e+01 0.000000000000e+00 0.000000000000e+00 0.000000000000e+00 
4.000000000000e+00 3.000000000000e+01 0.000000000000e+00 0.000000000000e+00 0.000000000000e+00 
5.000000000000e+00 3.000000000000e+01 0.000000000000e+00 0.000000000000e+00 0.000000000000e+00 
6.000000000000e+00 3.000000000000e+01 0.000000000000e+00 0.000000000000e+00 0.000000000000e+00 
7.000000000000e+00 3.000000000000e+01 0.000000000000e+00 0.000000000000e+00 0.000000000000e+00 
8.000000000000e+00 3.000000000000e+01 0.000000000000e+00 0.000000000000e+00 0.000000000000e+00 
9.000000000000e+00 3.000000000000e+01 0.000000000000e+00 0.000000000000e+00 0.000000000000e+00 
1.000000000000e+01 3.000000000000e+01 0.000000000000e+00 0.000000000000e+00 0.000000000000e+00 
1.100000000000e+01 3.000000000000e+01 0.000000000000e+00 0.000000000000e+00 0.000000000000e+00 
1.200000000000e+01 3.000000000000e+01 0.000000000000e+00 0.000000000000e+00 0.000000000000e+00 
1.300000000000e+01 3.000000000000e+01 0.000000000000e+00 0.000000000000e+00 0.000000000000e+00 
1.400000000000e+01 3.000000000000e+01 0.000000000000e+00 0.000000000000e+00 0.000000000000e+00 
1.500000000000e+01 3.000000000000e+01 0.000000000000e+00 0.000000000000e+00 0.000000000000e+00 
1.600000000000e+01 3.000000000000e+01 0.000000000000e+00 0.000000000000e+00 0.000000000000e+00 
1.700000000000e+01 3.000000000000e+01 0.000000000000e+00 0.000000000000e+00 0.000000000000e+00 
1.800000000000e+01 3.000000000000e+01 0.000000000000e+00 0.000000000000e+00 0.000000000000e+00 
1.900000000000e+01 3.000000000000e+01 0.000000000000e+00 0.000000000000e+00 0.000000000000e+00 
2.000000000000e+01 3.000000000000e+01 0.000000000000e+00 0.000000000000e+00 0.000000000000e+00 
2.100000000000e+01 3.000000000000e+01 0.000000000000e+00 0.000000000000e+00 0.000000000000e+00 
2.200000000000e+01 3.000000000000e+01 0.000000000000e+00 0.000000000000e+00 0.000000000000e+00 
2.300000000000e+01 3.000000000000e+01 0.000000000000e+00 0.000000000000e+00 0.000000000000e+00 
2.400000000000e+01 3.000000000000e+01 0.000000000000e+00 0.000000000000e+00 0.000000000000e+00 
2.500000000000e+01 3.000000000000e+01 0.000000000000e+00 0.000000000000e+00 0.000000000000e+00 
2.600000000000e+01 3.000000000000e+01 0.000000000000e+00 0.000000000000e+00 0.000000000000e+00 
2.700000000000e+01 3.000000000000e+01 0.000000000000e+00 0.000000000000e+00 0.000000000000e+00 
2.800000000000e+01 3.000000000000e+01 0.000000000000e+00 0.000000000000e+00 0.000000000000e+00 
2.900000000000e+01 3.000000000000e+01 0.000000000000e+00 0.000000000000e+00 0.000000000000e+00 
3.000000000000e+01 3.000000000000e+01 0.000000000000e+00 0.000000000000e+00 0.000000000000e+00 
 TITLE = "Profiles along polylines"
 VARIABLES = "DIST" "HEAD" "VELOCITY_X1" "VELOCITY_Y1" "VELOCITY_Z1" 
 ZONE T="TIME=1.797693134862e+308"
0.000000000000e+00 3.054465423163e+01 6.195336688085e-10 -6.195033405881e-12 0.000000000000e+00 
1.000000000000e+00 3.054465478445e+01 1.377184925298e-08 -1.439063263522e-10 0.000000000000e+00 
2.000000000000e+00 3.054465536272e+01 1.748914018836e-08 -4.564845218678e-10 0.000000000000e+00 
3.000000000000e+00 3.054465969644e+01 4.686396060108e-09 -6.782093163324e-10 0.000000000000e+00 
4.000000000000e+00 3.054469009461e+01 1.071066922036e-09 -7.357771111138e-10 0.000000000000e+00 
5.000000000000e+00 3.054474021205e+01 1.686218370145e-09 -7.633481225414e-10 0.000000000000e+00 
6.000000000000e+00 3.054475713407e+01 1.745227497513e-09 -7.976593974737e-10 0.000000000000e+00 
7.000000000000e+00 3.054480499870e+01 1.722059964962e-09 -8.323289064000e-10 0.000000000000e+00 
8.000000000000e+00 3.054482376576e+01 1.968940651610e-09 -8.692354329742e-10 0.000000000000e+00 
9.000000000000e+00 3.054485800689e+01 2.851056642370e-08 -1.174013547714e-09 0.000000000000e+00 
1.000000000000e+01 3.054485945810e+01 2.810045330821e-08 -1.740066724872e-09 0.000000000000e+00 
1.100000000000e+01 3.054504113432e+01 3.980240367086e-10 -2.025008741968e-09 0.000000000000e+00 
1.200000000000e+01 3.054566074261e+01 2.553925931172e-09 -2.054526436534e-09 0.000000000000e+00 
1.300000000000e+01 3.054568408357e+01 3.995621381209e-08 -2.479602394063e-09 0.000000000000e+00 
1.400000000000e+01 3.054568620629e+01 4.637063198690e-08 -3.342777095670e-09 0.000000000000e+00 
1.500000000000e+01 3.054569805817e+01 1.056489741577e-08 -3.912048695833e-09 0.000000000000e+00 
1.600000000000e+01 3.054576388758e+01 1.724586516851e-09 -4.034928027385e-09 0.000000000000e+00 
1.700000000000e+01 3.054874978402e+01 1.184285546357e-10 -4.053356642064e-09 0.000000000000e+00 
1.800000000000e+01 3.055013492235e+01 2.178925844377e-08 -4.272420809589e-09 0.000000000000e+00 
1.900000000000e+01 3.055014064013e+01 2.360566492277e-08 -4.726312066700e-09 0.000000000000e+00 
2.000000000000e+01 3.055021293765e+01 2.484685597046e-09 -4.987166409812e-09 0.000000000000e+00 
2.100000000000e+01 3.055044881339e+01 5.924553745846e-10 -5.017933415144e-09 0.000000000000e+00 
2.200000000000e+01 3.057772841059e+01 4.148734287980e-10 -5.028005727727e-09 0.000000000000e+00 
2.300000000000e+01 3.057806786806e+01 5.197451352917e-10 -5.037349737963e-09 0.000000000000e+00 
2.400000000000e+01 3.057933549253e+01 1.978530511599e-10 -5.044523441646e-09 0.000000000000e+00 
2.500000000000e+01 3.058092269905e+01 1.685429663391e-09 -5.063353969149e-09 0.000000000000e+00 
2.600000000000e+01 3.058101060444e+01 2.212212755101e-09 -5.102321044139e-09 0.000000000000e+00 
2.700000000000e+01 3.058124105993e+01 6.371476356425e-10 -5.130804835363e-09 0.000000000000e+00 
2.800000000000e+01 3.058755981192e+01 1.578370155297e-08 -5.294995060055e-09 0.000000000000e+00 
2.900000000000e+01 3.058756937544e+01 1.580385335568e-08 -5.610787112905e-09 0.000000000000e+00 
3.000000000000e+01 3.059131050126e+01 8.525049507098e-11 -5.768758145999e-09 0.000000000000e+00 
