VARIABLES = "X","Y","Z",VELOCITY1_X,VELOCITY1_Y,VELOCITY1_Z
ZONE T="0.000000000000e+00s", 
0.000000000000e+00 0.000000000000e+00 5.000000000000e-01 0.000000000000e+00 0.000000000000e+00 0.000000000000e+00
0.000000000000e+00 0.000000000000e+00 1.500000000000e+00 0.000000000000e+00 0.000000000000e+00 0.000000000000e+00
0.000000000000e+00 0.000000000000e+00 2.500000000000e+00 0.000000000000e+00 0.000000000000e+00 0.000000000000e+00
0.000000000000e+00 0.000000000000e+00 3.500000000000e+00 0.000000000000e+00 0.000000000000e+00 0.000000000000e+00
0.000000000000e+00 0.000000000000e+00 4.500000000000e+00 0.000000000000e+00 0.000000000000e+00 0.000000000000e+00
0.000000000000e+00 0.000000000000e+00 5.500000000000e+00 0.000000000000e+00 0.000000000000e+00 0.000000000000e+00
0.000000000000e+00 0.000000000000e+00 6.500000000000e+00 0.000000000000e+00 0.000000000000e+00 0.000000000000e+00
0.000000000000e+00 0.000000000000e+00 7.500000000000e+00 0.000000000000e+00 0.000000000000e+00 0.000000000000e+00
0.000000000000e+00 0.000000000000e+00 8.500000000000e+00 0.000000000000e+00 0.000000000000e+00 0.000000000000e+00
0.000000000000e+00 0.000000000000e+00 9.500000000000e+00 0.000000000000e+00 0.000000000000e+00 0.000000000000e+00
0.000000000000e+00 0.000000000000e+00 1.050000000000e+01 0.000000000000e+00 0.000000000000e+00 0.000000000000e+00
0.000000000000e+00 0.000000000000e+00 1.150000000000e+01 0.000000000000e+00 0.000000000000e+00 0.000000000000e+00
0.000000000000e+00 0.000000000000e+00 1.250000000000e+01 0.000000000000e+00 0.000000000000e+00 0.000000000000e+00
0.000000000000e+00 0.000000000000e+00 1.350000000000e+01 0.000000000000e+00 0.000000000000e+00 0.000000000000e+00
0.000000000000e+00 0.000000000000e+00 1.450000000000e+01 0.000000000000e+00 0.000000000000e+00 0.000000000000e+00
0.000000000000e+00 0.000000000000e+00 1.550000000000e+01 0.000000000000e+00 0.000000000000e+00 0.000000000000e+00
0.000000000000e+00 0.000000000000e+00 1.650000000000e+01 0.000000000000e+00 0.000000000000e+00 0.000000000000e+00
0.000000000000e+00 0.000000000000e+00 1.750000000000e+01 0.000000000000e+00 0.000000000000e+00 0.000000000000e+00
0.000000000000e+00 0.000000000000e+00 1.850000000000e+01 0.000000000000e+00 0.000000000000e+00 0.000000000000e+00
0.000000000000e+00 0.000000000000e+00 1.950000000000e+01 0.000000000000e+00 0.000000000000e+00 0.000000000000e+00
0.000000000000e+00 0.000000000000e+00 2.050000000000e+01 0.000000000000e+00 0.000000000000e+00 0.000000000000e+00
0.000000000000e+00 0.000000000000e+00 2.150000000000e+01 0.000000000000e+00 0.000000000000e+00 0.000000000000e+00
0.000000000000e+00 0.000000000000e+00 2.250000000000e+01 0.000000000000e+00 0.000000000000e+00 0.000000000000e+00
0.000000000000e+00 0.000000000000e+00 2.350000000000e+01 0.000000000000e+00 0.000000000000e+00 0.000000000000e+00
0.000000000000e+00 0.000000000000e+00 2.450000000000e+01 0.000000000000e+00 0.000000000000e+00 0.000000000000e+00
0.000000000000e+00 0.000000000000e+00 2.550000000000e+01 0.000000000000e+00 0.000000000000e+00 0.000000000000e+00
0.000000000000e+00 0.000000000000e+00 2.650000000000e+01 0.000000000000e+00 0.000000000000e+00 0.000000000000e+00
0.000000000000e+00 0.000000000000e+00 2.750000000000e+01 0.000000000000e+00 0.000000000000e+00 0.000000000000e+00
0.000000000000e+00 0.000000000000e+00 2.850000000000e+01 0.000000000000e+00 0.000000000000e+00 0.000000000000e+00
0.000000000000e+00 0.000000000000e+00 2.950000000000e+01 0.000000000000e+00 0.000000000000e+00 0.000000000000e+00
VARIABLES = "X","Y","Z",VELOCITY1_X,VELOCITY1_Y,VELOCITY1_Z
ZONE T="1.797693134862e+308s", 
0.000000000000e+00 0.000000000000e+00 5.000000000000e-01 1.757261169794e-12 -1.757163898796e-12 0.000000000000e+00
0.000000000000e+00 0.000000000000e+00 1.500000000000e+00 8.521446921209e-13 -4.367420713729e-12 0.000000000000e+00
0.000000000000e+00 0.000000000000e+00 2.500000000000e+00 8.192705850010e-12 -1.341243719730e-11 0.000000000000e+00
0.000000000000e+00 0.000000000000e+00 3.500000000000e+00 1.017692288156e-13 -2.171057722494e-11 0.000000000000e+00
0.000000000000e+00 0.000000000000e+00 4.500000000000e+00 8.232083141227e-12 -3.004426501791e-11 0.000000000000e+00
0.000000000000e+00 0.000000000000e+00 5.500000000000e+00 9.411394125043e-12 -4.769188471238e-11 0.000000000000e+00
0.000000000000e+00 0.000000000000e+00 6.500000000000e+00 7.496195400532e-10 -8.066789950204e-10 0.000000000000e+00
0.000000000000e+00 0.000000000000e+00 7.500000000000e+00 3.372663821371e-11 -1.590361217488e-09 0.000000000000e+00
0.000000000000e+00 0.000000000000e+00 8.500000000000e+00 4.340201242768e-10 -2.058112550224e-09 0.000000000000e+00
0.000000000000e+00 0.000000000000e+00 9.500000000000e+00 8.050471549236e-11 -2.572826100357e-09 0.000000000000e+00
0.000000000000e+00 0.000000000000e+00 1.050000000000e+01 6.192199465520e-12 -2.659577500221e-09 0.000000000000e+00
0.000000000000e+00 0.000000000000e+00 1.150000000000e+01 1.228820836552e-11 -2.678060659278e-09 0.000000000000e+00
0.000000000000e+00 0.000000000000e+00 1.250000000000e+01 2.198286695003e-12 -2.692552181300e-09 0.000000000000e+00
0.000000000000e+00 0.000000000000e+00 1.350000000000e+01 2.548158710979e-11 -2.720233510012e-09 0.000000000000e+00
0.000000000000e+00 0.000000000000e+00 1.450000000000e+01 2.691531655125e-10 -3.014864704542e-09 0.000000000000e+00
0.000000000000e+00 0.000000000000e+00 1.550000000000e+01 1.434597619431e-11 -3.298487130366e-09 0.000000000000e+00
0.000000000000e+00 0.000000000000e+00 1.650000000000e+01 3.193766239401e-11 -3.344783006132e-09 0.000000000000e+00
0.000000000000e+00 0.000000000000e+00 1.750000000000e+01 2.501647617946e-11 -3.401750891514e-09 0.000000000000e+00
0.000000000000e+00 0.000000000000e+00 1.850000000000e+01 3.793112865812e-11 -3.464711299900e-09 0.000000000000e+00
0.000000000000e+00 0.000000000000e+00 1.950000000000e+01 6.147284647904e-12 -3.508806798178e-09 0.000000000000e+00
0.000000000000e+00 0.000000000000e+00 2.050000000000e+01 7.499293043706e-13 -3.515707204755e-09 0.000000000000e+00
0.000000000000e+00 0.000000000000e+00 2.150000000000e+01 1.174341003181e-11 -3.528201212962e-09 0.000000000000e+00
0.000000000000e+00 0.000000000000e+00 2.250000000000e+01 3.151155296164e-10 -3.855040867375e-09 0.000000000000e+00
0.000000000000e+00 0.000000000000e+00 2.350000000000e+01 1.617540244010e-12 -4.171920456861e-09 0.000000000000e+00
0.000000000000e+00 0.000000000000e+00 2.450000000000e+01 5.556879751125e-10 -4.729187066015e-09 0.000000000000e+00
0.000000000000e+00 0.000000000000e+00 2.550000000000e+01 1.774788065504e-10 -5.462608853689e-09 0.000000000000e+00
0.000000000000e+00 0.000000000000e+00 2.650000000000e+01 4.924396636135e-11 -5.689458569145e-09 0.000000000000e+00
0.000000000000e+00 0.000000000000e+00 2.750000000000e+01 4.492723006901e-13 -5.739170529472e-09 0.000000000000e+00
0.000000000000e+00 0.000000000000e+00 2.850000000000e+01 1.318271033354e-11 -5.752801412994e-09 0.000000000000e+00
0.000000000000e+00 0.000000000000e+00 2.950000000000e+01 1.809546369775e-12 -5.767799441197e-09 0.000000000000e+00
