 TITLE = "Profiles along polylines"
 VARIABLES = "DIST" "HEAD" "VELOCITY_X1" "VELOCITY_Y1" "VELOCITY_Z1" 
 ZONE T="TIME=0.000000000000e+00"
0.000000000000e+00 3.000000000000e+01 0.000000000000e+00 0.000000000000e+00 0.000000000000e+00 
1.000000000000e+00 3.000000000000e+01 0.000000000000e+00 0.000000000000e+00 0.000000000000e+00 
2.000000000000e+00 3.000000000000e+01 0.000000000000e+00 0.000000000000e+00 0.000000000000e+00 
3.000000000000e+00 3.000000000000e+01 0.000000000000e+00 0.000000000000e+00 0.000000000000e+00 
4.000000000000e+00 3.000000000000e+01 0.000000000000e+00 0.000000000000e+00 0.000000000000e+00 
5.000000000000e+00 3.000000000000e+01 0.000000000000e+00 0.000000000000e+00 0.000000000000e+00 
6.000000000000e+00 3.000000000000e+01 0.000000000000e+00 0.000000000000e+00 0.000000000000e+00 
7.000000000000e+00 3.000000000000e+01 0.000000000000e+00 0.000000000000e+00 0.000000000000e+00 
8.000000000000e+00 3.000000000000e+01 0.000000000000e+00 0.000000000000e+00 0.000000000000e+00 
9.000000000000e+00 3.000000000000e+01 0.000000000000e+00 0.000000000000e+00 0.000000000000e+00 
1.000000000000e+01 3.000000000000e+01 0.000000000000e+00 0.000000000000e+00 0.000000000000e+00 
1.100000000000e+01 3.000000000000e+01 0.000000000000e+00 0.000000000000e+00 0.000000000000e+00 
1.200000000000e+01 3.000000000000e+01 0.000000000000e+00 0.000000000000e+00 0.000000000000e+00 
1.300000000000e+01 3.000000000000e+01 0.000000000000e+00 0.000000000000e+00 0.000000000000e+00 
1.400000000000e+01 3.000000000000e+01 0.000000000000e+00 0.000000000000e+00 0.000000000000e+00 
1.500000000000e+01 3.000000000000e+01 0.000000000000e+00 0.000000000000e+00 0.000000000000e+00 
1.600000000000e+01 3.000000000000e+01 0.000000000000e+00 0.000000000000e+00 0.000000000000e+00 
1.700000000000e+01 3.000000000000e+01 0.000000000000e+00 0.000000000000e+00 0.000000000000e+00 
1.800000000000e+01 3.000000000000e+01 0.000000000000e+00 0.000000000000e+00 0.000000000000e+00 
1.900000000000e+01 3.000000000000e+01 0.000000000000e+00 0.000000000000e+00 0.000000000000e+00 
2.000000000000e+01 3.000000000000e+01 0.000000000000e+00 0.000000000000e+00 0.000000000000e+00 
2.100000000000e+01 3.000000000000e+01 0.000000000000e+00 0.000000000000e+00 0.000000000000e+00 
2.200000000000e+01 3.000000000000e+01 0.000000000000e+00 0.000000000000e+00 0.000000000000e+00 
2.300000000000e+01 3.000000000000e+01 0.000000000000e+00 0.000000000000e+00 0.000000000000e+00 
2.400000000000e+01 3.000000000000e+01 0.000000000000e+00 0.000000000000e+00 0.000000000000e+00 
2.500000000000e+01 3.000000000000e+01 0.000000000000e+00 0.000000000000e+00 0.000000000000e+00 
2.600000000000e+01 3.000000000000e+01 0.000000000000e+00 0.000000000000e+00 0.000000000000e+00 
2.700000000000e+01 3.000000000000e+01 0.000000000000e+00 0.000000000000e+00 0.000000000000e+00 
2.800000000000e+01 3.000000000000e+01 0.000000000000e+00 0.000000000000e+00 0.000000000000e+00 
2.900000000000e+01 3.000000000000e+01 0.000000000000e+00 0.000000000000e+00 0.000000000000e+00 
3.000000000000e+01 3.000000000000e+01 0.000000000000e+00 0.000000000000e+00 0.000000000000e+00 
 TITLE = "Profiles along polylines"
 VARIABLES = "DIST" "HEAD" "VELOCITY_X1" "VELOCITY_Y1" "VELOCITY_Z1" 
 ZONE T="TIME=1.797693134862e+308"
0.000000000000e+00 3.054887032648e+01 1.757125322804e-10 -1.757264575336e-12 0.000000000000e+00 
1.000000000000e+00 3.054887087917e+01 1.304647268564e-10 -3.062358836908e-12 0.000000000000e+00 
2.000000000000e+00 3.054887371153e+01 4.522314849297e-10 -8.890279199205e-12 0.000000000000e+00 
3.000000000000e+00 3.054887461634e+01 4.147118353354e-10 -1.756184394662e-11 0.000000000000e+00 
4.000000000000e+00 3.054899250503e+01 4.166638551580e-10 -2.587759549872e-11 0.000000000000e+00 
5.000000000000e+00 3.054899452216e+01 8.821372103261e-10 -3.886836554088e-11 0.000000000000e+00 
6.000000000000e+00 3.054899732272e+01 3.794936135134e-08 -4.272153471722e-10 0.000000000000e+00 
7.000000000000e+00 3.054899791751e+01 3.916524198553e-08 -1.198548769851e-09 0.000000000000e+00 
8.000000000000e+00 3.054902397541e+01 2.338661932711e-08 -1.824249720281e-09 0.000000000000e+00 
9.000000000000e+00 3.054902659617e+01 2.572573375119e-08 -2.315492973141e-09 0.000000000000e+00 
1.000000000000e+01 3.054904425669e+01 4.335208349638e-09 -2.616211457769e-09 0.000000000000e+00 
1.100000000000e+01 3.054928158813e+01 9.240846528702e-10 -2.668819284469e-09 0.000000000000e+00 
1.200000000000e+01 3.054940202557e+01 7.243527445189e-10 -2.685306741018e-09 0.000000000000e+00 
1.300000000000e+01 3.055007889508e+01 1.383934451717e-09 -2.706393145115e-09 0.000000000000e+00 
1.400000000000e+01 3.055013789446e+01 1.473108039670e-08 -2.867563095606e-09 0.000000000000e+00 
1.500000000000e+01 3.055014408512e+01 1.417441650928e-08 -3.156691254404e-09 0.000000000000e+00 
1.600000000000e+01 3.055027114232e+01 2.314264784003e-09 -3.321636829765e-09 0.000000000000e+00 
1.700000000000e+01 3.055032901881e+01 2.847770028379e-09 -3.373267973628e-09 0.000000000000e+00 
1.800000000000e+01 3.055040416572e+01 3.147462927366e-09 -3.433233240422e-09 0.000000000000e+00 
1.900000000000e+01 3.055045464413e+01 2.203997181262e-09 -3.486760981894e-09 0.000000000000e+00 
2.000000000000e+01 3.055077006118e+01 3.448899800930e-10 -3.512257777481e-09 0.000000000000e+00 
2.100000000000e+01 3.055336065642e+01 6.246430439270e-10 -3.521954561073e-09 0.000000000000e+00 
2.200000000000e+01 3.055352670103e+01 1.634214992505e-08 -3.691639426281e-09 0.000000000000e+00 
2.300000000000e+01 3.055353346232e+01 1.583589110661e-08 -4.013499280998e-09 0.000000000000e+00 
2.400000000000e+01 3.055495870091e+01 2.786345226486e-08 -4.450579950548e-09 0.000000000000e+00 
2.500000000000e+01 3.055496340455e+01 3.665706849898e-08 -5.095943756132e-09 0.000000000000e+00 
2.600000000000e+01 3.055498041340e+01 1.133698470019e-08 -5.576054707205e-09 0.000000000000e+00 
2.700000000000e+01 3.055504425634e+01 2.484949809812e-09 -5.714315475162e-09 0.000000000000e+00 
2.800000000000e+01 3.056210346718e+01 6.815572797138e-10 -5.745986648552e-09 0.000000000000e+00 
2.900000000000e+01 3.056234465129e+01 7.495774137369e-10 -5.760301415864e-09 0.000000000000e+00 
3.000000000000e+01 3.056410601005e+01 1.809704630422e-10 -5.767799981927e-09 0.000000000000e+00 
