VARIABLES = "X","Y","Z",VELOCITY1_X,VELOCITY1_Y,VELOCITY1_Z
ZONE T="0.000000000000e+00s", 
7.490000000000e+02 0.000000000000e+00 5.000000000000e-01 0.000000000000e+00 0.000000000000e+00 0.000000000000e+00
7.500000000000e+02 0.000000000000e+00 5.000000000000e-01 0.000000000000e+00 0.000000000000e+00 0.000000000000e+00
7.490000000000e+02 0.000000000000e+00 1.500000000000e+00 0.000000000000e+00 0.000000000000e+00 0.000000000000e+00
7.500000000000e+02 0.000000000000e+00 1.500000000000e+00 0.000000000000e+00 0.000000000000e+00 0.000000000000e+00
7.490000000000e+02 0.000000000000e+00 2.500000000000e+00 0.000000000000e+00 0.000000000000e+00 0.000000000000e+00
7.500000000000e+02 0.000000000000e+00 2.500000000000e+00 0.000000000000e+00 0.000000000000e+00 0.000000000000e+00
7.490000000000e+02 0.000000000000e+00 3.500000000000e+00 0.000000000000e+00 0.000000000000e+00 0.000000000000e+00
7.500000000000e+02 0.000000000000e+00 3.500000000000e+00 0.000000000000e+00 0.000000000000e+00 0.000000000000e+00
7.490000000000e+02 0.000000000000e+00 4.500000000000e+00 0.000000000000e+00 0.000000000000e+00 0.000000000000e+00
7.500000000000e+02 0.000000000000e+00 4.500000000000e+00 0.000000000000e+00 0.000000000000e+00 0.000000000000e+00
7.490000000000e+02 0.000000000000e+00 5.500000000000e+00 0.000000000000e+00 0.000000000000e+00 0.000000000000e+00
7.500000000000e+02 0.000000000000e+00 5.500000000000e+00 0.000000000000e+00 0.000000000000e+00 0.000000000000e+00
7.490000000000e+02 0.000000000000e+00 6.500000000000e+00 0.000000000000e+00 0.000000000000e+00 0.000000000000e+00
7.500000000000e+02 0.000000000000e+00 6.500000000000e+00 0.000000000000e+00 0.000000000000e+00 0.000000000000e+00
7.490000000000e+02 0.000000000000e+00 7.500000000000e+00 0.000000000000e+00 0.000000000000e+00 0.000000000000e+00
7.500000000000e+02 0.000000000000e+00 7.500000000000e+00 0.000000000000e+00 0.000000000000e+00 0.000000000000e+00
7.490000000000e+02 0.000000000000e+00 8.500000000000e+00 0.000000000000e+00 0.000000000000e+00 0.000000000000e+00
7.500000000000e+02 0.000000000000e+00 8.500000000000e+00 0.000000000000e+00 0.000000000000e+00 0.000000000000e+00
7.490000000000e+02 0.000000000000e+00 9.500000000000e+00 0.000000000000e+00 0.000000000000e+00 0.000000000000e+00
7.500000000000e+02 0.000000000000e+00 9.500000000000e+00 0.000000000000e+00 0.000000000000e+00 0.000000000000e+00
7.490000000000e+02 0.000000000000e+00 1.050000000000e+01 0.000000000000e+00 0.000000000000e+00 0.000000000000e+00
7.500000000000e+02 0.000000000000e+00 1.050000000000e+01 0.000000000000e+00 0.000000000000e+00 0.000000000000e+00
7.490000000000e+02 0.000000000000e+00 1.150000000000e+01 0.000000000000e+00 0.000000000000e+00 0.000000000000e+00
7.500000000000e+02 0.000000000000e+00 1.150000000000e+01 0.000000000000e+00 0.000000000000e+00 0.000000000000e+00
7.490000000000e+02 0.000000000000e+00 1.250000000000e+01 0.000000000000e+00 0.000000000000e+00 0.000000000000e+00
7.500000000000e+02 0.000000000000e+00 1.250000000000e+01 0.000000000000e+00 0.000000000000e+00 0.000000000000e+00
7.490000000000e+02 0.000000000000e+00 1.350000000000e+01 0.000000000000e+00 0.000000000000e+00 0.000000000000e+00
7.500000000000e+02 0.000000000000e+00 1.350000000000e+01 0.000000000000e+00 0.000000000000e+00 0.000000000000e+00
7.490000000000e+02 0.000000000000e+00 1.450000000000e+01 0.000000000000e+00 0.000000000000e+00 0.000000000000e+00
7.500000000000e+02 0.000000000000e+00 1.450000000000e+01 0.000000000000e+00 0.000000000000e+00 0.000000000000e+00
7.490000000000e+02 0.000000000000e+00 1.550000000000e+01 0.000000000000e+00 0.000000000000e+00 0.000000000000e+00
7.500000000000e+02 0.000000000000e+00 1.550000000000e+01 0.000000000000e+00 0.000000000000e+00 0.000000000000e+00
7.490000000000e+02 0.000000000000e+00 1.650000000000e+01 0.000000000000e+00 0.000000000000e+00 0.000000000000e+00
7.500000000000e+02 0.000000000000e+00 1.650000000000e+01 0.000000000000e+00 0.000000000000e+00 0.000000000000e+00
7.490000000000e+02 0.000000000000e+00 1.750000000000e+01 0.000000000000e+00 0.000000000000e+00 0.000000000000e+00
7.500000000000e+02 0.000000000000e+00 1.750000000000e+01 0.000000000000e+00 0.000000000000e+00 0.000000000000e+00
7.490000000000e+02 0.000000000000e+00 1.850000000000e+01 0.000000000000e+00 0.000000000000e+00 0.000000000000e+00
7.500000000000e+02 0.000000000000e+00 1.850000000000e+01 0.000000000000e+00 0.000000000000e+00 0.000000000000e+00
7.490000000000e+02 0.000000000000e+00 1.950000000000e+01 0.000000000000e+00 0.000000000000e+00 0.000000000000e+00
7.500000000000e+02 0.000000000000e+00 1.950000000000e+01 0.000000000000e+00 0.000000000000e+00 0.000000000000e+00
7.490000000000e+02 0.000000000000e+00 2.050000000000e+01 0.000000000000e+00 0.000000000000e+00 0.000000000000e+00
7.500000000000e+02 0.000000000000e+00 2.050000000000e+01 0.000000000000e+00 0.000000000000e+00 0.000000000000e+00
7.490000000000e+02 0.000000000000e+00 2.150000000000e+01 0.000000000000e+00 0.000000000000e+00 0.000000000000e+00
7.500000000000e+02 0.000000000000e+00 2.150000000000e+01 0.000000000000e+00 0.000000000000e+00 0.000000000000e+00
7.490000000000e+02 0.000000000000e+00 2.250000000000e+01 0.000000000000e+00 0.000000000000e+00 0.000000000000e+00
7.500000000000e+02 0.000000000000e+00 2.250000000000e+01 0.000000000000e+00 0.000000000000e+00 0.000000000000e+00
7.490000000000e+02 0.000000000000e+00 2.350000000000e+01 0.000000000000e+00 0.000000000000e+00 0.000000000000e+00
7.500000000000e+02 0.000000000000e+00 2.350000000000e+01 0.000000000000e+00 0.000000000000e+00 0.000000000000e+00
7.490000000000e+02 0.000000000000e+00 2.450000000000e+01 0.000000000000e+00 0.000000000000e+00 0.000000000000e+00
7.500000000000e+02 0.000000000000e+00 2.450000000000e+01 0.000000000000e+00 0.000000000000e+00 0.000000000000e+00
7.490000000000e+02 0.000000000000e+00 2.550000000000e+01 0.000000000000e+00 0.000000000000e+00 0.000000000000e+00
7.500000000000e+02 0.000000000000e+00 2.550000000000e+01 0.000000000000e+00 0.000000000000e+00 0.000000000000e+00
7.490000000000e+02 0.000000000000e+00 2.650000000000e+01 0.000000000000e+00 0.000000000000e+00 0.000000000000e+00
7.500000000000e+02 0.000000000000e+00 2.650000000000e+01 0.000000000000e+00 0.000000000000e+00 0.000000000000e+00
7.490000000000e+02 0.000000000000e+00 2.750000000000e+01 0.000000000000e+00 0.000000000000e+00 0.000000000000e+00
7.500000000000e+02 0.000000000000e+00 2.750000000000e+01 0.000000000000e+00 0.000000000000e+00 0.000000000000e+00
7.490000000000e+02 0.000000000000e+00 2.850000000000e+01 0.000000000000e+00 0.000000000000e+00 0.000000000000e+00
7.500000000000e+02 0.000000000000e+00 2.850000000000e+01 0.000000000000e+00 0.000000000000e+00 0.000000000000e+00
7.490000000000e+02 0.000000000000e+00 2.950000000000e+01 0.000000000000e+00 0.000000000000e+00 0.000000000000e+00
7.500000000000e+02 0.000000000000e+00 2.950000000000e+01 0.000000000000e+00 0.000000000000e+00 0.000000000000e+00
VARIABLES = "X","Y","Z",VELOCITY1_X,VELOCITY1_Y,VELOCITY1_Z
ZONE T="1.797693134862e+308s", 
7.490000000000e+02 0.000000000000e+00 5.000000000000e-01 2.634053988940e-09 -1.751412967424e-12 0.000000000000e+00
7.500000000000e+02 0.000000000000e+00 5.000000000000e-01 2.637556544178e-09 -1.751278615123e-12 0.000000000000e+00
7.490000000000e+02 0.000000000000e+00 1.500000000000e+00 1.277461310597e-09 -4.352220034682e-12 0.000000000000e+00
7.500000000000e+02 0.000000000000e+00 1.500000000000e+00 1.279159996933e-09 -4.351854198514e-12 0.000000000000e+00
7.490000000000e+02 0.000000000000e+00 2.500000000000e+00 1.228107577588e-08 -1.336751468361e-11 0.000000000000e+00
7.500000000000e+02 0.000000000000e+00 2.500000000000e+00 1.229740643294e-08 -1.336640375103e-11 0.000000000000e+00
7.490000000000e+02 0.000000000000e+00 3.500000000000e+00 1.525695342043e-10 -2.163479672281e-11 0.000000000000e+00
7.500000000000e+02 0.000000000000e+00 3.500000000000e+00 1.527724163159e-10 -2.163297485215e-11 0.000000000000e+00
7.490000000000e+02 0.000000000000e+00 4.500000000000e+00 1.233975216499e-08 -2.994271778445e-11 0.000000000000e+00
7.500000000000e+02 0.000000000000e+00 4.500000000000e+00 1.235616345831e-08 -2.994068704933e-11 0.000000000000e+00
7.490000000000e+02 0.000000000000e+00 5.500000000000e+00 1.410829316073e-08 -4.753204059634e-11 0.000000000000e+00
7.500000000000e+02 0.000000000000e+00 5.500000000000e+00 1.412705785701e-08 -4.752810604399e-11 0.000000000000e+00
7.490000000000e+02 0.000000000000e+00 6.500000000000e+00 1.123681450379e-06 -8.042299855639e-10 0.000000000000e+00
7.500000000000e+02 0.000000000000e+00 6.500000000000e+00 1.125175990449e-06 -8.041597336920e-10 0.000000000000e+00
7.490000000000e+02 0.000000000000e+00 7.500000000000e+00 5.056257430119e-08 -1.585153905001e-09 0.000000000000e+00
7.500000000000e+02 0.000000000000e+00 7.500000000000e+00 5.062982421879e-08 -1.585029001487e-09 0.000000000000e+00
7.490000000000e+02 0.000000000000e+00 8.500000000000e+00 6.506117785193e-07 -2.051490662438e-09 0.000000000000e+00
7.500000000000e+02 0.000000000000e+00 8.500000000000e+00 6.514771492339e-07 -2.051329669747e-09 0.000000000000e+00
7.490000000000e+02 0.000000000000e+00 9.500000000000e+00 1.206937578318e-07 -2.564472895560e-09 0.000000000000e+00
7.500000000000e+02 0.000000000000e+00 9.500000000000e+00 1.208542918685e-07 -2.564272551855e-09 0.000000000000e+00
7.490000000000e+02 0.000000000000e+00 1.050000000000e+01 9.283967775155e-09 -2.650920329020e-09 0.000000000000e+00
7.500000000000e+02 0.000000000000e+00 1.050000000000e+01 9.296317313900e-09 -2.650712813793e-09 0.000000000000e+00
7.490000000000e+02 0.000000000000e+00 1.150000000000e+01 1.842232254877e-08 -2.669355031044e-09 0.000000000000e+00
7.500000000000e+02 0.000000000000e+00 1.150000000000e+01 1.844683656941e-08 -2.669146270632e-09 0.000000000000e+00
7.490000000000e+02 0.000000000000e+00 1.250000000000e+01 3.295733414043e-09 -2.683807767242e-09 0.000000000000e+00
7.500000000000e+02 0.000000000000e+00 1.250000000000e+01 3.300120217971e-09 -2.683598104251e-09 0.000000000000e+00
7.490000000000e+02 0.000000000000e+00 1.350000000000e+01 3.820114636699e-08 -2.711452170237e-09 0.000000000000e+00
7.500000000000e+02 0.000000000000e+00 1.350000000000e+01 3.825204313429e-08 -2.711241591880e-09 0.000000000000e+00
7.490000000000e+02 0.000000000000e+00 1.450000000000e+01 4.035101030123e-07 -3.005737562557e-09 0.000000000000e+00
7.500000000000e+02 0.000000000000e+00 1.450000000000e+01 4.040477583988e-07 -3.005517999164e-09 0.000000000000e+00
7.490000000000e+02 0.000000000000e+00 1.550000000000e+01 2.150980021659e-08 -3.288901342245e-09 0.000000000000e+00
7.500000000000e+02 0.000000000000e+00 1.550000000000e+01 2.153846165239e-08 -3.288671257773e-09 0.000000000000e+00
7.490000000000e+02 0.000000000000e+00 1.650000000000e+01 4.788402639563e-08 -3.335142460896e-09 0.000000000000e+00
7.500000000000e+02 0.000000000000e+00 1.650000000000e+01 4.794784157062e-08 -3.334911859729e-09 0.000000000000e+00
7.490000000000e+02 0.000000000000e+00 1.750000000000e+01 3.750753910076e-08 -3.392048961802e-09 0.000000000000e+00
7.500000000000e+02 0.000000000000e+00 1.750000000000e+01 3.755753044574e-08 -3.391815989873e-09 0.000000000000e+00
7.490000000000e+02 0.000000000000e+00 1.850000000000e+01 5.687104527737e-08 -3.454950548495e-09 0.000000000000e+00
7.500000000000e+02 0.000000000000e+00 1.850000000000e+01 5.694685185208e-08 -3.454716363971e-09 0.000000000000e+00
7.490000000000e+02 0.000000000000e+00 1.950000000000e+01 9.217365839460e-09 -3.499000348999e-09 0.000000000000e+00
7.500000000000e+02 0.000000000000e+00 1.950000000000e+01 9.229653542582e-09 -3.498764900260e-09 0.000000000000e+00
7.490000000000e+02 0.000000000000e+00 2.050000000000e+01 1.124515875183e-09 -3.505896349605e-09 0.000000000000e+00
7.500000000000e+02 0.000000000000e+00 2.050000000000e+01 1.126016113205e-09 -3.505661027673e-09 0.000000000000e+00
7.490000000000e+02 0.000000000000e+00 2.150000000000e+01 1.761011077607e-08 -3.518432035070e-09 0.000000000000e+00
7.500000000000e+02 0.000000000000e+00 2.150000000000e+01 1.763367961173e-08 -3.518197733160e-09 0.000000000000e+00
7.490000000000e+02 0.000000000000e+00 2.250000000000e+01 4.725435049885e-07 -3.846477688996e-09 0.000000000000e+00
7.500000000000e+02 0.000000000000e+00 2.250000000000e+01 4.731760727445e-07 -3.846270080612e-09 0.000000000000e+00
7.490000000000e+02 0.000000000000e+00 2.350000000000e+01 2.426000963947e-09 -4.164355631905e-09 0.000000000000e+00
7.500000000000e+02 0.000000000000e+00 2.350000000000e+01 2.429248998292e-09 -4.164174034780e-09 0.000000000000e+00
7.490000000000e+02 0.000000000000e+00 2.450000000000e+01 8.333514988445e-07 -4.724409195346e-09 0.000000000000e+00
7.500000000000e+02 0.000000000000e+00 2.450000000000e+01 8.344684766671e-07 -4.724291278487e-09 0.000000000000e+00
7.490000000000e+02 0.000000000000e+00 2.550000000000e+01 2.661949612031e-07 -5.461203425954e-09 0.000000000000e+00
7.500000000000e+02 0.000000000000e+00 2.550000000000e+01 2.665517540664e-07 -5.461168540769e-09 0.000000000000e+00
7.490000000000e+02 0.000000000000e+00 2.650000000000e+01 7.386343141364e-08 -5.689076681889e-09 0.000000000000e+00
7.500000000000e+02 0.000000000000e+00 2.650000000000e+01 7.396243356657e-08 -5.689066445403e-09 0.000000000000e+00
7.490000000000e+02 0.000000000000e+00 2.750000000000e+01 6.738521294505e-10 -5.739023080368e-09 0.000000000000e+00
7.500000000000e+02 0.000000000000e+00 2.750000000000e+01 6.747553248271e-10 -5.739019558767e-09 0.000000000000e+00
7.490000000000e+02 0.000000000000e+00 2.850000000000e+01 1.976989914408e-08 -5.752723641724e-09 0.000000000000e+00
7.500000000000e+02 0.000000000000e+00 2.850000000000e+01 1.979639995263e-08 -5.752721761247e-09 0.000000000000e+00
7.490000000000e+02 0.000000000000e+00 2.950000000000e+01 2.714163819727e-09 -5.767791433495e-09 0.000000000000e+00
7.500000000000e+02 0.000000000000e+00 2.950000000000e+01 2.717802076723e-09 -5.767791200365e-09 0.000000000000e+00
