 TITLE = "Profiles along polylines"
 VARIABLES = "DIST" "HEAD" "VELOCITY_X1" "VELOCITY_Y1" "VELOCITY_Z1" 
 ZONE T="TIME=0.000000000000e+00"
0.000000000000e+00 3.000000000000e+01 0.000000000000e+00 0.000000000000e+00 0.000000000000e+00 
1.000000000000e+00 3.000000000000e+01 0.000000000000e+00 0.000000000000e+00 0.000000000000e+00 
2.000000000000e+00 3.000000000000e+01 0.000000000000e+00 0.000000000000e+00 0.000000000000e+00 
3.000000000000e+00 3.000000000000e+01 0.000000000000e+00 0.000000000000e+00 0.000000000000e+00 
4.000000000000e+00 3.000000000000e+01 0.000000000000e+00 0.000000000000e+00 0.000000000000e+00 
5.000000000000e+00 3.000000000000e+01 0.000000000000e+00 0.000000000000e+00 0.000000000000e+00 
6.000000000000e+00 3.000000000000e+01 0.000000000000e+00 0.000000000000e+00 0.000000000000e+00 
7.000000000000e+00 3.000000000000e+01 0.000000000000e+00 0.000000000000e+00 0.000000000000e+00 
8.000000000000e+00 3.000000000000e+01 0.000000000000e+00 0.000000000000e+00 0.000000000000e+00 
9.000000000000e+00 3.000000000000e+01 0.000000000000e+00 0.000000000000e+00 0.000000000000e+00 
1.000000000000e+01 3.000000000000e+01 0.000000000000e+00 0.000000000000e+00 0.000000000000e+00 
1.100000000000e+01 3.000000000000e+01 0.000000000000e+00 0.000000000000e+00 0.000000000000e+00 
1.200000000000e+01 3.000000000000e+01 0.000000000000e+00 0.000000000000e+00 0.000000000000e+00 
1.300000000000e+01 3.000000000000e+01 0.000000000000e+00 0.000000000000e+00 0.000000000000e+00 
1.400000000000e+01 3.000000000000e+01 0.000000000000e+00 0.000000000000e+00 0.000000000000e+00 
1.500000000000e+01 3.000000000000e+01 0.000000000000e+00 0.000000000000e+00 0.000000000000e+00 
1.600000000000e+01 3.000000000000e+01 0.000000000000e+00 0.000000000000e+00 0.000000000000e+00 
1.700000000000e+01 3.000000000000e+01 0.000000000000e+00 0.000000000000e+00 0.000000000000e+00 
1.800000000000e+01 3.000000000000e+01 0.000000000000e+00 0.000000000000e+00 0.000000000000e+00 
1.900000000000e+01 3.000000000000e+01 0.000000000000e+00 0.000000000000e+00 0.000000000000e+00 
2.000000000000e+01 3.000000000000e+01 0.000000000000e+00 0.000000000000e+00 0.000000000000e+00 
2.100000000000e+01 3.000000000000e+01 0.000000000000e+00 0.000000000000e+00 0.000000000000e+00 
2.200000000000e+01 3.000000000000e+01 0.000000000000e+00 0.000000000000e+00 0.000000000000e+00 
2.300000000000e+01 3.000000000000e+01 0.000000000000e+00 0.000000000000e+00 0.000000000000e+00 
2.400000000000e+01 3.000000000000e+01 0.000000000000e+00 0.000000000000e+00 0.000000000000e+00 
2.500000000000e+01 3.000000000000e+01 0.000000000000e+00 0.000000000000e+00 0.000000000000e+00 
2.600000000000e+01 3.000000000000e+01 0.000000000000e+00 0.000000000000e+00 0.000000000000e+00 
2.700000000000e+01 3.000000000000e+01 0.000000000000e+00 0.000000000000e+00 0.000000000000e+00 
2.800000000000e+01 3.000000000000e+01 0.000000000000e+00 0.000000000000e+00 0.000000000000e+00 
2.900000000000e+01 3.000000000000e+01 0.000000000000e+00 0.000000000000e+00 0.000000000000e+00 
3.000000000000e+01 3.000000000000e+01 0.000000000000e+00 0.000000000000e+00 0.000000000000e+00 
 TITLE = "Profiles along polylines"
 VARIABLES = "DIST" "HEAD" "VELOCITY_X1" "VELOCITY_Y1" "VELOCITY_Z1" 
 ZONE T="TIME=1.797693134862e+308"
0.000000000000e+00 3.055025193693e+01 1.757286894396e-12 -1.757138173784e-12 0.000000000000e+00 
1.000000000000e+00 3.055025248958e+01 1.304597705800e-12 -3.062283404533e-12 0.000000000000e+00 
2.000000000000e+00 3.055025532192e+01 4.522515911743e-12 -8.889873457824e-12 0.000000000000e+00 
3.000000000000e+00 3.055025622669e+01 4.146768479669e-12 -1.756144868558e-11 0.000000000000e+00 
4.000000000000e+00 3.055037411535e+01 4.166966091331e-12 -2.587738949135e-11 0.000000000000e+00 
5.000000000000e+00 3.055037613245e+01 8.821446560621e-12 -3.886807802077e-11 0.000000000000e+00 
6.000000000000e+00 3.055037893301e+01 3.795223417176e-10 -4.271788821909e-10 0.000000000000e+00 
7.000000000000e+00 3.055037952774e+01 3.916209271959e-10 -1.198513764764e-09 0.000000000000e+00 
8.000000000000e+00 3.055040558568e+01 2.338783842453e-10 -1.824234116146e-09 0.000000000000e+00 
9.000000000000e+00 3.055040820640e+01 2.572389866559e-10 -2.315465964722e-09 0.000000000000e+00 
1.000000000000e+01 3.055042586678e+01 4.334573405322e-11 -2.616201498509e-09 0.000000000000e+00 
1.100000000000e+01 3.055066319824e+01 9.240529968382e-12 -2.668819101294e-09 0.000000000000e+00 
1.200000000000e+01 3.055078363566e+01 7.243095262385e-12 -2.685306416175e-09 0.000000000000e+00 
1.300000000000e+01 3.055146050513e+01 1.384002857383e-11 -2.706392873898e-09 0.000000000000e+00 
1.400000000000e+01 3.055151950450e+01 1.473196017789e-10 -2.867547012546e-09 0.000000000000e+00 
1.500000000000e+01 3.055152569510e+01 1.417329133815e-10 -3.156673857236e-09 0.000000000000e+00 
1.600000000000e+01 3.055165275218e+01 2.314222141302e-11 -3.321635103090e-09 0.000000000000e+00 
1.700000000000e+01 3.055171062866e+01 2.847694624752e-11 -3.373266944063e-09 0.000000000000e+00 
1.800000000000e+01 3.055178577553e+01 3.147401196993e-11 -3.433230971760e-09 0.000000000000e+00 
1.900000000000e+01 3.055183625391e+01 2.203816296372e-11 -3.486758907363e-09 0.000000000000e+00 
2.000000000000e+01 3.055215167084e+01 3.448537017539e-12 -3.512256999653e-09 0.000000000000e+00 
2.100000000000e+01 3.055474226585e+01 6.246702193531e-12 -3.521954232013e-09 0.000000000000e+00 
2.200000000000e+01 3.055490831044e+01 1.634328041340e-10 -3.691617855737e-09 0.000000000000e+00 
2.300000000000e+01 3.055491507166e+01 1.583413126501e-10 -4.013477478346e-09 0.000000000000e+00 
2.400000000000e+01 3.055634030998e+01 2.786571941701e-10 -4.450549480673e-09 0.000000000000e+00 
2.500000000000e+01 3.055634501356e+01 3.665501927972e-10 -5.095893018287e-09 0.000000000000e+00 
2.600000000000e+01 3.055636202227e+01 1.133562250798e-10 -5.576033165558e-09 0.000000000000e+00 
2.700000000000e+01 3.055642586520e+01 2.484738189497e-11 -5.714314650991e-09 0.000000000000e+00 
2.800000000000e+01 3.056348507615e+01 6.816145202043e-12 -5.745985855328e-09 0.000000000000e+00 
2.900000000000e+01 3.056372626019e+01 7.495190901302e-12 -5.760300298147e-09 0.000000000000e+00 
3.000000000000e+01 3.056548761877e+01 1.809408375370e-12 -5.767799423671e-09 0.000000000000e+00 
