 TITLE = "Profiles along polylines"
 VARIABLES = "DIST" "HEAD" "VELOCITY_X1" "VELOCITY_Y1" "VELOCITY_Z1" 
 ZONE T="TIME=0.000000000000e+00"
0.000000000000e+00 3.000000000000e+01 0.000000000000e+00 0.000000000000e+00 0.000000000000e+00 
1.000000000000e+00 3.000000000000e+01 0.000000000000e+00 0.000000000000e+00 0.000000000000e+00 
2.000000000000e+00 3.000000000000e+01 0.000000000000e+00 0.000000000000e+00 0.000000000000e+00 
3.000000000000e+00 3.000000000000e+01 0.000000000000e+00 0.000000000000e+00 0.000000000000e+00 
4.000000000000e+00 3.000000000000e+01 0.000000000000e+00 0.000000000000e+00 0.000000000000e+00 
5.000000000000e+00 3.000000000000e+01 0.000000000000e+00 0.000000000000e+00 0.000000000000e+00 
6.000000000000e+00 3.000000000000e+01 0.000000000000e+00 0.000000000000e+00 0.000000000000e+00 
7.000000000000e+00 3.000000000000e+01 0.000000000000e+00 0.000000000000e+00 0.000000000000e+00 
8.000000000000e+00 3.000000000000e+01 0.000000000000e+00 0.000000000000e+00 0.000000000000e+00 
9.000000000000e+00 3.000000000000e+01 0.000000000000e+00 0.000000000000e+00 0.000000000000e+00 
1.000000000000e+01 3.000000000000e+01 0.000000000000e+00 0.000000000000e+00 0.000000000000e+00 
1.100000000000e+01 3.000000000000e+01 0.000000000000e+00 0.000000000000e+00 0.000000000000e+00 
1.200000000000e+01 3.000000000000e+01 0.000000000000e+00 0.000000000000e+00 0.000000000000e+00 
1.300000000000e+01 3.000000000000e+01 0.000000000000e+00 0.000000000000e+00 0.000000000000e+00 
1.400000000000e+01 3.000000000000e+01 0.000000000000e+00 0.000000000000e+00 0.000000000000e+00 
1.500000000000e+01 3.000000000000e+01 0.000000000000e+00 0.000000000000e+00 0.000000000000e+00 
1.600000000000e+01 3.000000000000e+01 0.000000000000e+00 0.000000000000e+00 0.000000000000e+00 
1.700000000000e+01 3.000000000000e+01 0.000000000000e+00 0.000000000000e+00 0.000000000000e+00 
1.800000000000e+01 3.000000000000e+01 0.000000000000e+00 0.000000000000e+00 0.000000000000e+00 
1.900000000000e+01 3.000000000000e+01 0.000000000000e+00 0.000000000000e+00 0.000000000000e+00 
2.000000000000e+01 3.000000000000e+01 0.000000000000e+00 0.000000000000e+00 0.000000000000e+00 
2.100000000000e+01 3.000000000000e+01 0.000000000000e+00 0.000000000000e+00 0.000000000000e+00 
2.200000000000e+01 3.000000000000e+01 0.000000000000e+00 0.000000000000e+00 0.000000000000e+00 
2.300000000000e+01 3.000000000000e+01 0.000000000000e+00 0.000000000000e+00 0.000000000000e+00 
2.400000000000e+01 3.000000000000e+01 0.000000000000e+00 0.000000000000e+00 0.000000000000e+00 
2.500000000000e+01 3.000000000000e+01 0.000000000000e+00 0.000000000000e+00 0.000000000000e+00 
2.600000000000e+01 3.000000000000e+01 0.000000000000e+00 0.000000000000e+00 0.000000000000e+00 
2.700000000000e+01 3.000000000000e+01 0.000000000000e+00 0.000000000000e+00 0.000000000000e+00 
2.800000000000e+01 3.000000000000e+01 0.000000000000e+00 0.000000000000e+00 0.000000000000e+00 
2.900000000000e+01 3.000000000000e+01 0.000000000000e+00 0.000000000000e+00 0.000000000000e+00 
3.000000000000e+01 3.000000000000e+01 0.000000000000e+00 0.000000000000e+00 0.000000000000e+00 
 TITLE = "Profiles along polylines"
 VARIABLES = "DIST" "HEAD" "VELOCITY_X1" "VELOCITY_Y1" "VELOCITY_Z1" 
 ZONE T="TIME=1.797693134862e+308"
0.000000000000e+00 3.010276110571e+01 3.145136825062e-09 -1.539724765309e-12 0.000000000000e+00 
1.000000000000e+00 3.010276158998e+01 2.335235064889e-09 -2.682993224032e-12 0.000000000000e+00 
2.000000000000e+00 3.010276407137e+01 8.094721091348e-09 -7.789975800633e-12 0.000000000000e+00 
3.000000000000e+00 3.010276486425e+01 7.423157320980e-09 -1.538876288742e-11 0.000000000000e+00 
4.000000000000e+00 3.010286816387e+01 7.460678429423e-09 -2.270569088748e-11 0.000000000000e+00 
5.000000000000e+00 3.010286993547e+01 1.579541996178e-08 -3.418360186349e-11 0.000000000000e+00 
6.000000000000e+00 3.010287240059e+01 6.795210704448e-07 -3.774274458901e-10 0.000000000000e+00 
7.000000000000e+00 3.010287292617e+01 7.012937697022e-07 -1.059083020461e-09 0.000000000000e+00 
8.000000000000e+00 3.010289595174e+01 4.187915893186e-07 -1.612373656807e-09 0.000000000000e+00 
9.000000000000e+00 3.010289826857e+01 4.606821900295e-07 -2.047288875217e-09 0.000000000000e+00 
1.000000000000e+01 3.010291388545e+01 7.763628740136e-08 -2.313558909329e-09 0.000000000000e+00 
1.100000000000e+01 3.010312376945e+01 1.655961112583e-08 -2.360315808294e-09 0.000000000000e+00 
1.200000000000e+01 3.010323029142e+01 1.298470921793e-08 -2.375206265758e-09 0.000000000000e+00 
1.300000000000e+01 3.010382903653e+01 2.485442290595e-08 -2.394869427060e-09 0.000000000000e+00 
1.400000000000e+01 3.010388126300e+01 2.646016836319e-07 -2.547812961837e-09 0.000000000000e+00 
1.500000000000e+01 3.010388678175e+01 2.546068783723e-07 -2.822278813124e-09 0.000000000000e+00 
1.600000000000e+01 3.010400068070e+01 4.158284709912e-08 -2.979025664009e-09 0.000000000000e+00 
1.700000000000e+01 3.010405261126e+01 5.117615176980e-08 -3.028478843179e-09 0.000000000000e+00 
1.800000000000e+01 3.010412011584e+01 5.657212368613e-08 -3.086117118756e-09 0.000000000000e+00 
1.900000000000e+01 3.010416552008e+01 3.961917896109e-08 -3.137721488637e-09 0.000000000000e+00 
2.000000000000e+01 3.010444949259e+01 6.204414241375e-09 -3.162394333126e-09 0.000000000000e+00 
2.100000000000e+01 3.010678223950e+01 1.130612268263e-08 -3.172732747237e-09 0.000000000000e+00 
2.200000000000e+01 3.010693188219e+01 2.959101112633e-07 -3.362936493185e-09 0.000000000000e+00 
2.300000000000e+01 3.010693810173e+01 2.867468807622e-07 -3.723806029148e-09 0.000000000000e+00 
2.400000000000e+01 3.010827093132e+01 5.056436382668e-07 -4.227276711037e-09 0.000000000000e+00 
2.500000000000e+01 3.010827545980e+01 6.652259243076e-07 -4.981851394601e-09 0.000000000000e+00 
2.600000000000e+01 3.010829230650e+01 2.057361897861e-07 -5.543174609065e-09 0.000000000000e+00 
2.700000000000e+01 3.010835599589e+01 4.509540482310e-08 -5.704842540720e-09 0.000000000000e+00 
2.800000000000e+01 3.011540873548e+01 1.237040276660e-08 -5.741904565233e-09 0.000000000000e+00 
2.900000000000e+01 3.011564979788e+01 1.360502141679e-08 -5.758693500682e-09 0.000000000000e+00 
3.000000000000e+01 3.011741106111e+01 3.284667697261e-09 -5.767487168565e-09 0.000000000000e+00 
