VARIABLES = "X","Y","Z",VELOCITY1_X,VELOCITY1_Y,VELOCITY1_Z
ZONE T="0.000000000000e+00s", 
4.900000000000e+01 0.000000000000e+00 5.000000000000e-01 0.000000000000e+00 0.000000000000e+00 0.000000000000e+00
5.000000000000e+01 0.000000000000e+00 5.000000000000e-01 0.000000000000e+00 0.000000000000e+00 0.000000000000e+00
4.900000000000e+01 0.000000000000e+00 1.500000000000e+00 0.000000000000e+00 0.000000000000e+00 0.000000000000e+00
5.000000000000e+01 0.000000000000e+00 1.500000000000e+00 0.000000000000e+00 0.000000000000e+00 0.000000000000e+00
4.900000000000e+01 0.000000000000e+00 2.500000000000e+00 0.000000000000e+00 0.000000000000e+00 0.000000000000e+00
5.000000000000e+01 0.000000000000e+00 2.500000000000e+00 0.000000000000e+00 0.000000000000e+00 0.000000000000e+00
4.900000000000e+01 0.000000000000e+00 3.500000000000e+00 0.000000000000e+00 0.000000000000e+00 0.000000000000e+00
5.000000000000e+01 0.000000000000e+00 3.500000000000e+00 0.000000000000e+00 0.000000000000e+00 0.000000000000e+00
4.900000000000e+01 0.000000000000e+00 4.500000000000e+00 0.000000000000e+00 0.000000000000e+00 0.000000000000e+00
5.000000000000e+01 0.000000000000e+00 4.500000000000e+00 0.000000000000e+00 0.000000000000e+00 0.000000000000e+00
4.900000000000e+01 0.000000000000e+00 5.500000000000e+00 0.000000000000e+00 0.000000000000e+00 0.000000000000e+00
5.000000000000e+01 0.000000000000e+00 5.500000000000e+00 0.000000000000e+00 0.000000000000e+00 0.000000000000e+00
4.900000000000e+01 0.000000000000e+00 6.500000000000e+00 0.000000000000e+00 0.000000000000e+00 0.000000000000e+00
5.000000000000e+01 0.000000000000e+00 6.500000000000e+00 0.000000000000e+00 0.000000000000e+00 0.000000000000e+00
4.900000000000e+01 0.000000000000e+00 7.500000000000e+00 0.000000000000e+00 0.000000000000e+00 0.000000000000e+00
5.000000000000e+01 0.000000000000e+00 7.500000000000e+00 0.000000000000e+00 0.000000000000e+00 0.000000000000e+00
4.900000000000e+01 0.000000000000e+00 8.500000000000e+00 0.000000000000e+00 0.000000000000e+00 0.000000000000e+00
5.000000000000e+01 0.000000000000e+00 8.500000000000e+00 0.000000000000e+00 0.000000000000e+00 0.000000000000e+00
4.900000000000e+01 0.000000000000e+00 9.500000000000e+00 0.000000000000e+00 0.000000000000e+00 0.000000000000e+00
5.000000000000e+01 0.000000000000e+00 9.500000000000e+00 0.000000000000e+00 0.000000000000e+00 0.000000000000e+00
4.900000000000e+01 0.000000000000e+00 1.050000000000e+01 0.000000000000e+00 0.000000000000e+00 0.000000000000e+00
5.000000000000e+01 0.000000000000e+00 1.050000000000e+01 0.000000000000e+00 0.000000000000e+00 0.000000000000e+00
4.900000000000e+01 0.000000000000e+00 1.150000000000e+01 0.000000000000e+00 0.000000000000e+00 0.000000000000e+00
5.000000000000e+01 0.000000000000e+00 1.150000000000e+01 0.000000000000e+00 0.000000000000e+00 0.000000000000e+00
4.900000000000e+01 0.000000000000e+00 1.250000000000e+01 0.000000000000e+00 0.000000000000e+00 0.000000000000e+00
5.000000000000e+01 0.000000000000e+00 1.250000000000e+01 0.000000000000e+00 0.000000000000e+00 0.000000000000e+00
4.900000000000e+01 0.000000000000e+00 1.350000000000e+01 0.000000000000e+00 0.000000000000e+00 0.000000000000e+00
5.000000000000e+01 0.000000000000e+00 1.350000000000e+01 0.000000000000e+00 0.000000000000e+00 0.000000000000e+00
4.900000000000e+01 0.000000000000e+00 1.450000000000e+01 0.000000000000e+00 0.000000000000e+00 0.000000000000e+00
5.000000000000e+01 0.000000000000e+00 1.450000000000e+01 0.000000000000e+00 0.000000000000e+00 0.000000000000e+00
4.900000000000e+01 0.000000000000e+00 1.550000000000e+01 0.000000000000e+00 0.000000000000e+00 0.000000000000e+00
5.000000000000e+01 0.000000000000e+00 1.550000000000e+01 0.000000000000e+00 0.000000000000e+00 0.000000000000e+00
4.900000000000e+01 0.000000000000e+00 1.650000000000e+01 0.000000000000e+00 0.000000000000e+00 0.000000000000e+00
5.000000000000e+01 0.000000000000e+00 1.650000000000e+01 0.000000000000e+00 0.000000000000e+00 0.000000000000e+00
4.900000000000e+01 0.000000000000e+00 1.750000000000e+01 0.000000000000e+00 0.000000000000e+00 0.000000000000e+00
5.000000000000e+01 0.000000000000e+00 1.750000000000e+01 0.000000000000e+00 0.000000000000e+00 0.000000000000e+00
4.900000000000e+01 0.000000000000e+00 1.850000000000e+01 0.000000000000e+00 0.000000000000e+00 0.000000000000e+00
5.000000000000e+01 0.000000000000e+00 1.850000000000e+01 0.000000000000e+00 0.000000000000e+00 0.000000000000e+00
4.900000000000e+01 0.000000000000e+00 1.950000000000e+01 0.000000000000e+00 0.000000000000e+00 0.000000000000e+00
5.000000000000e+01 0.000000000000e+00 1.950000000000e+01 0.000000000000e+00 0.000000000000e+00 0.000000000000e+00
4.900000000000e+01 0.000000000000e+00 2.050000000000e+01 0.000000000000e+00 0.000000000000e+00 0.000000000000e+00
5.000000000000e+01 0.000000000000e+00 2.050000000000e+01 0.000000000000e+00 0.000000000000e+00 0.000000000000e+00
4.900000000000e+01 0.000000000000e+00 2.150000000000e+01 0.000000000000e+00 0.000000000000e+00 0.000000000000e+00
5.000000000000e+01 0.000000000000e+00 2.150000000000e+01 0.000000000000e+00 0.000000000000e+00 0.000000000000e+00
4.900000000000e+01 0.000000000000e+00 2.250000000000e+01 0.000000000000e+00 0.000000000000e+00 0.000000000000e+00
5.000000000000e+01 0.000000000000e+00 2.250000000000e+01 0.000000000000e+00 0.000000000000e+00 0.000000000000e+00
4.900000000000e+01 0.000000000000e+00 2.350000000000e+01 0.000000000000e+00 0.000000000000e+00 0.000000000000e+00
5.000000000000e+01 0.000000000000e+00 2.350000000000e+01 0.000000000000e+00 0.000000000000e+00 0.000000000000e+00
4.900000000000e+01 0.000000000000e+00 2.450000000000e+01 0.000000000000e+00 0.000000000000e+00 0.000000000000e+00
5.000000000000e+01 0.000000000000e+00 2.450000000000e+01 0.000000000000e+00 0.000000000000e+00 0.000000000000e+00
4.900000000000e+01 0.000000000000e+00 2.550000000000e+01 0.000000000000e+00 0.000000000000e+00 0.000000000000e+00
5.000000000000e+01 0.000000000000e+00 2.550000000000e+01 0.000000000000e+00 0.000000000000e+00 0.000000000000e+00
4.900000000000e+01 0.000000000000e+00 2.650000000000e+01 0.000000000000e+00 0.000000000000e+00 0.000000000000e+00
5.000000000000e+01 0.000000000000e+00 2.650000000000e+01 0.000000000000e+00 0.000000000000e+00 0.000000000000e+00
4.900000000000e+01 0.000000000000e+00 2.750000000000e+01 0.000000000000e+00 0.000000000000e+00 0.000000000000e+00
5.000000000000e+01 0.000000000000e+00 2.750000000000e+01 0.000000000000e+00 0.000000000000e+00 0.000000000000e+00
4.900000000000e+01 0.000000000000e+00 2.850000000000e+01 0.000000000000e+00 0.000000000000e+00 0.000000000000e+00
5.000000000000e+01 0.000000000000e+00 2.850000000000e+01 0.000000000000e+00 0.000000000000e+00 0.000000000000e+00
4.900000000000e+01 0.000000000000e+00 2.950000000000e+01 0.000000000000e+00 0.000000000000e+00 0.000000000000e+00
5.000000000000e+01 0.000000000000e+00 2.950000000000e+01 0.000000000000e+00 0.000000000000e+00 0.000000000000e+00
VARIABLES = "X","Y","Z",VELOCITY1_X,VELOCITY1_Y,VELOCITY1_Z
ZONE T="1.797693134862e+308s", 
4.900000000000e+01 0.000000000000e+00 5.000000000000e-01 1.739554011592e-10 -1.757266024166e-12 0.000000000000e+00
5.000000000000e+01 0.000000000000e+00 5.000000000000e-01 1.774696649604e-10 -1.757263200215e-12 0.000000000000e+00
4.900000000000e+01 0.000000000000e+00 1.500000000000e+00 8.436474064038e-11 -4.367458666904e-12 0.000000000000e+00
5.000000000000e+01 0.000000000000e+00 1.500000000000e+00 8.606908890669e-11 -4.367453292760e-12 0.000000000000e+00
4.900000000000e+01 0.000000000000e+00 2.500000000000e+00 8.110535908053e-10 -1.341319921890e-11 0.000000000000e+00
5.000000000000e+01 0.000000000000e+00 2.500000000000e+00 8.274385204354e-10 -1.341311210965e-11 0.000000000000e+00
4.900000000000e+01 0.000000000000e+00 3.500000000000e+00 1.007581873658e-11 -2.171057398629e-11 0.000000000000e+00
5.000000000000e+01 0.000000000000e+00 3.500000000000e+00 1.027937038404e-11 -2.171058220070e-11 0.000000000000e+00
4.900000000000e+01 0.000000000000e+00 4.500000000000e+00 8.149181975634e-10 -3.004495912758e-11 0.000000000000e+00
5.000000000000e+01 0.000000000000e+00 4.500000000000e+00 8.313820343263e-10 -3.004465813682e-11 0.000000000000e+00
4.900000000000e+01 0.000000000000e+00 5.500000000000e+00 9.317130386994e-10 -4.769220119237e-11 0.000000000000e+00
5.000000000000e+01 0.000000000000e+00 5.500000000000e+00 9.505356303897e-10 -4.769211358713e-11 0.000000000000e+00
4.900000000000e+01 0.000000000000e+00 6.500000000000e+00 7.420801913417e-08 -8.067437969392e-10 0.000000000000e+00
5.000000000000e+01 0.000000000000e+00 6.500000000000e+00 7.570717768350e-08 -8.067390071483e-10 0.000000000000e+00
4.900000000000e+01 0.000000000000e+00 7.500000000000e+00 3.339155815750e-09 -1.590358683415e-09 0.000000000000e+00
5.000000000000e+01 0.000000000000e+00 7.500000000000e+00 3.406613487504e-09 -1.590358932117e-09 0.000000000000e+00
4.900000000000e+01 0.000000000000e+00 8.500000000000e+00 4.296634739867e-08 -2.058143957512e-09 0.000000000000e+00
5.000000000000e+01 0.000000000000e+00 8.500000000000e+00 4.383436048704e-08 -2.058141036358e-09 0.000000000000e+00
4.900000000000e+01 0.000000000000e+00 9.500000000000e+00 7.970602882979e-09 -2.572843943122e-09 0.000000000000e+00
5.000000000000e+01 0.000000000000e+00 9.500000000000e+00 8.131625161386e-09 -2.572845315204e-09 0.000000000000e+00
4.900000000000e+01 0.000000000000e+00 1.050000000000e+01 6.131096886694e-10 -2.659577484256e-09 0.000000000000e+00
5.000000000000e+01 0.000000000000e+00 1.050000000000e+01 6.254959544850e-10 -2.659577440701e-09 0.000000000000e+00
4.900000000000e+01 0.000000000000e+00 1.150000000000e+01 1.216577626527e-09 -2.678061172848e-09 0.000000000000e+00
5.000000000000e+01 0.000000000000e+00 1.150000000000e+01 1.241155278973e-09 -2.678061144961e-09 0.000000000000e+00
4.900000000000e+01 0.000000000000e+00 1.250000000000e+01 2.176406814595e-10 -2.692552365418e-09 0.000000000000e+00
5.000000000000e+01 0.000000000000e+00 1.250000000000e+01 2.220374851088e-10 -2.692552356373e-09 0.000000000000e+00
4.900000000000e+01 0.000000000000e+00 1.350000000000e+01 2.522549489139e-09 -2.720233654813e-09 0.000000000000e+00
5.000000000000e+01 0.000000000000e+00 1.350000000000e+01 2.573510131799e-09 -2.720233920336e-09 0.000000000000e+00
4.900000000000e+01 0.000000000000e+00 1.450000000000e+01 2.664498750219e-08 -3.014893086650e-09 0.000000000000e+00
5.000000000000e+01 0.000000000000e+00 1.450000000000e+01 2.718327469315e-08 -3.014892294221e-09 0.000000000000e+00
4.900000000000e+01 0.000000000000e+00 1.550000000000e+01 1.420354536620e-09 -3.298490150280e-09 0.000000000000e+00
5.000000000000e+01 0.000000000000e+00 1.550000000000e+01 1.449048764885e-09 -3.298490253671e-09 0.000000000000e+00
4.900000000000e+01 0.000000000000e+00 1.650000000000e+01 3.161889391935e-09 -3.344783609971e-09 0.000000000000e+00
5.000000000000e+01 0.000000000000e+00 1.650000000000e+01 3.225766587910e-09 -3.344783395825e-09 0.000000000000e+00
4.900000000000e+01 0.000000000000e+00 1.750000000000e+01 2.476694585527e-09 -3.401752409857e-09 0.000000000000e+00
5.000000000000e+01 0.000000000000e+00 1.750000000000e+01 2.526729250343e-09 -3.401752533853e-09 0.000000000000e+00
4.900000000000e+01 0.000000000000e+00 1.850000000000e+01 3.755281393536e-09 -3.464714109534e-09 0.000000000000e+00
5.000000000000e+01 0.000000000000e+00 1.850000000000e+01 3.831146523308e-09 -3.464713995413e-09 0.000000000000e+00
4.900000000000e+01 0.000000000000e+00 1.950000000000e+01 6.086326920635e-10 -3.508807871427e-09 0.000000000000e+00
5.000000000000e+01 0.000000000000e+00 1.950000000000e+01 6.209283500019e-10 -3.508808036074e-09 0.000000000000e+00
4.900000000000e+01 0.000000000000e+00 2.050000000000e+01 7.424956102680e-11 -3.515707518117e-09 0.000000000000e+00
5.000000000000e+01 0.000000000000e+00 2.050000000000e+01 7.574956466876e-11 -3.515707533362e-09 0.000000000000e+00
4.900000000000e+01 0.000000000000e+00 2.150000000000e+01 1.162543568316e-09 -3.528201417313e-09 0.000000000000e+00
5.000000000000e+01 0.000000000000e+00 2.150000000000e+01 1.186029467941e-09 -3.528201611096e-09 0.000000000000e+00
4.900000000000e+01 0.000000000000e+00 2.250000000000e+01 3.119491088751e-08 -3.855077410016e-09 0.000000000000e+00
5.000000000000e+01 0.000000000000e+00 2.250000000000e+01 3.182511615978e-08 -3.855077229734e-09 0.000000000000e+00
4.900000000000e+01 0.000000000000e+00 2.350000000000e+01 1.601507941521e-10 -4.171921291923e-09 0.000000000000e+00
5.000000000000e+01 0.000000000000e+00 2.350000000000e+01 1.633861891703e-10 -4.171921302146e-09 0.000000000000e+00
4.900000000000e+01 0.000000000000e+00 2.450000000000e+01 5.500948219427e-08 -4.729242539912e-09 0.000000000000e+00
5.000000000000e+01 0.000000000000e+00 2.450000000000e+01 5.612078977953e-08 -4.729239225052e-09 0.000000000000e+00
4.900000000000e+01 0.000000000000e+00 2.550000000000e+01 1.757151173926e-08 -5.462645814368e-09 0.000000000000e+00
5.000000000000e+01 0.000000000000e+00 2.550000000000e+01 1.792649105063e-08 -5.462648746760e-09 0.000000000000e+00
4.900000000000e+01 0.000000000000e+00 2.650000000000e+01 4.875718760008e-09 -5.689460930705e-09 0.000000000000e+00
5.000000000000e+01 0.000000000000e+00 2.650000000000e+01 4.974219169953e-09 -5.689460441866e-09 0.000000000000e+00
4.900000000000e+01 0.000000000000e+00 2.750000000000e+01 4.448089263119e-11 -5.739170441058e-09 0.000000000000e+00
5.000000000000e+01 0.000000000000e+00 2.750000000000e+01 4.537950719797e-11 -5.739170447344e-09 0.000000000000e+00
4.900000000000e+01 0.000000000000e+00 2.850000000000e+01 1.305002286363e-09 -5.752802931968e-09 0.000000000000e+00
5.000000000000e+01 0.000000000000e+00 2.850000000000e+01 1.331366437840e-09 -5.752802861633e-09 0.000000000000e+00
4.900000000000e+01 0.000000000000e+00 2.950000000000e+01 1.791607464325e-10 -5.767799983555e-09 0.000000000000e+00
5.000000000000e+01 0.000000000000e+00 2.950000000000e+01 1.827801933799e-10 -5.767799983880e-09 0.000000000000e+00
