VARIABLES = "X","Y","Z",VELOCITY1_X,VELOCITY1_Y,VELOCITY1_Z
ZONE T="0.000000000000e+00s", 
2.490000000000e+02 0.000000000000e+00 5.000000000000e-01 0.000000000000e+00 0.000000000000e+00 0.000000000000e+00
2.500000000000e+02 0.000000000000e+00 5.000000000000e-01 0.000000000000e+00 0.000000000000e+00 0.000000000000e+00
2.490000000000e+02 0.000000000000e+00 1.500000000000e+00 0.000000000000e+00 0.000000000000e+00 0.000000000000e+00
2.500000000000e+02 0.000000000000e+00 1.500000000000e+00 0.000000000000e+00 0.000000000000e+00 0.000000000000e+00
2.490000000000e+02 0.000000000000e+00 2.500000000000e+00 0.000000000000e+00 0.000000000000e+00 0.000000000000e+00
2.500000000000e+02 0.000000000000e+00 2.500000000000e+00 0.000000000000e+00 0.000000000000e+00 0.000000000000e+00
2.490000000000e+02 0.000000000000e+00 3.500000000000e+00 0.000000000000e+00 0.000000000000e+00 0.000000000000e+00
2.500000000000e+02 0.000000000000e+00 3.500000000000e+00 0.000000000000e+00 0.000000000000e+00 0.000000000000e+00
2.490000000000e+02 0.000000000000e+00 4.500000000000e+00 0.000000000000e+00 0.000000000000e+00 0.000000000000e+00
2.500000000000e+02 0.000000000000e+00 4.500000000000e+00 0.000000000000e+00 0.000000000000e+00 0.000000000000e+00
2.490000000000e+02 0.000000000000e+00 5.500000000000e+00 0.000000000000e+00 0.000000000000e+00 0.000000000000e+00
2.500000000000e+02 0.000000000000e+00 5.500000000000e+00 0.000000000000e+00 0.000000000000e+00 0.000000000000e+00
2.490000000000e+02 0.000000000000e+00 6.500000000000e+00 0.000000000000e+00 0.000000000000e+00 0.000000000000e+00
2.500000000000e+02 0.000000000000e+00 6.500000000000e+00 0.000000000000e+00 0.000000000000e+00 0.000000000000e+00
2.490000000000e+02 0.000000000000e+00 7.500000000000e+00 0.000000000000e+00 0.000000000000e+00 0.000000000000e+00
2.500000000000e+02 0.000000000000e+00 7.500000000000e+00 0.000000000000e+00 0.000000000000e+00 0.000000000000e+00
2.490000000000e+02 0.000000000000e+00 8.500000000000e+00 0.000000000000e+00 0.000000000000e+00 0.000000000000e+00
2.500000000000e+02 0.000000000000e+00 8.500000000000e+00 0.000000000000e+00 0.000000000000e+00 0.000000000000e+00
2.490000000000e+02 0.000000000000e+00 9.500000000000e+00 0.000000000000e+00 0.000000000000e+00 0.000000000000e+00
2.500000000000e+02 0.000000000000e+00 9.500000000000e+00 0.000000000000e+00 0.000000000000e+00 0.000000000000e+00
2.490000000000e+02 0.000000000000e+00 1.050000000000e+01 0.000000000000e+00 0.000000000000e+00 0.000000000000e+00
2.500000000000e+02 0.000000000000e+00 1.050000000000e+01 0.000000000000e+00 0.000000000000e+00 0.000000000000e+00
2.490000000000e+02 0.000000000000e+00 1.150000000000e+01 0.000000000000e+00 0.000000000000e+00 0.000000000000e+00
2.500000000000e+02 0.000000000000e+00 1.150000000000e+01 0.000000000000e+00 0.000000000000e+00 0.000000000000e+00
2.490000000000e+02 0.000000000000e+00 1.250000000000e+01 0.000000000000e+00 0.000000000000e+00 0.000000000000e+00
2.500000000000e+02 0.000000000000e+00 1.250000000000e+01 0.000000000000e+00 0.000000000000e+00 0.000000000000e+00
2.490000000000e+02 0.000000000000e+00 1.350000000000e+01 0.000000000000e+00 0.000000000000e+00 0.000000000000e+00
2.500000000000e+02 0.000000000000e+00 1.350000000000e+01 0.000000000000e+00 0.000000000000e+00 0.000000000000e+00
2.490000000000e+02 0.000000000000e+00 1.450000000000e+01 0.000000000000e+00 0.000000000000e+00 0.000000000000e+00
2.500000000000e+02 0.000000000000e+00 1.450000000000e+01 0.000000000000e+00 0.000000000000e+00 0.000000000000e+00
2.490000000000e+02 0.000000000000e+00 1.550000000000e+01 0.000000000000e+00 0.000000000000e+00 0.000000000000e+00
2.500000000000e+02 0.000000000000e+00 1.550000000000e+01 0.000000000000e+00 0.000000000000e+00 0.000000000000e+00
2.490000000000e+02 0.000000000000e+00 1.650000000000e+01 0.000000000000e+00 0.000000000000e+00 0.000000000000e+00
2.500000000000e+02 0.000000000000e+00 1.650000000000e+01 0.000000000000e+00 0.000000000000e+00 0.000000000000e+00
2.490000000000e+02 0.000000000000e+00 1.750000000000e+01 0.000000000000e+00 0.000000000000e+00 0.000000000000e+00
2.500000000000e+02 0.000000000000e+00 1.750000000000e+01 0.000000000000e+00 0.000000000000e+00 0.000000000000e+00
2.490000000000e+02 0.000000000000e+00 1.850000000000e+01 0.000000000000e+00 0.000000000000e+00 0.000000000000e+00
2.500000000000e+02 0.000000000000e+00 1.850000000000e+01 0.000000000000e+00 0.000000000000e+00 0.000000000000e+00
2.490000000000e+02 0.000000000000e+00 1.950000000000e+01 0.000000000000e+00 0.000000000000e+00 0.000000000000e+00
2.500000000000e+02 0.000000000000e+00 1.950000000000e+01 0.000000000000e+00 0.000000000000e+00 0.000000000000e+00
2.490000000000e+02 0.000000000000e+00 2.050000000000e+01 0.000000000000e+00 0.000000000000e+00 0.000000000000e+00
2.500000000000e+02 0.000000000000e+00 2.050000000000e+01 0.000000000000e+00 0.000000000000e+00 0.000000000000e+00
2.490000000000e+02 0.000000000000e+00 2.150000000000e+01 0.000000000000e+00 0.000000000000e+00 0.000000000000e+00
2.500000000000e+02 0.000000000000e+00 2.150000000000e+01 0.000000000000e+00 0.000000000000e+00 0.000000000000e+00
2.490000000000e+02 0.000000000000e+00 2.250000000000e+01 0.000000000000e+00 0.000000000000e+00 0.000000000000e+00
2.500000000000e+02 0.000000000000e+00 2.250000000000e+01 0.000000000000e+00 0.000000000000e+00 0.000000000000e+00
2.490000000000e+02 0.000000000000e+00 2.350000000000e+01 0.000000000000e+00 0.000000000000e+00 0.000000000000e+00
2.500000000000e+02 0.000000000000e+00 2.350000000000e+01 0.000000000000e+00 0.000000000000e+00 0.000000000000e+00
2.490000000000e+02 0.000000000000e+00 2.450000000000e+01 0.000000000000e+00 0.000000000000e+00 0.000000000000e+00
2.500000000000e+02 0.000000000000e+00 2.450000000000e+01 0.000000000000e+00 0.000000000000e+00 0.000000000000e+00
2.490000000000e+02 0.000000000000e+00 2.550000000000e+01 0.000000000000e+00 0.000000000000e+00 0.000000000000e+00
2.500000000000e+02 0.000000000000e+00 2.550000000000e+01 0.000000000000e+00 0.000000000000e+00 0.000000000000e+00
2.490000000000e+02 0.000000000000e+00 2.650000000000e+01 0.000000000000e+00 0.000000000000e+00 0.000000000000e+00
2.500000000000e+02 0.000000000000e+00 2.650000000000e+01 0.000000000000e+00 0.000000000000e+00 0.000000000000e+00
2.490000000000e+02 0.000000000000e+00 2.750000000000e+01 0.000000000000e+00 0.000000000000e+00 0.000000000000e+00
2.500000000000e+02 0.000000000000e+00 2.750000000000e+01 0.000000000000e+00 0.000000000000e+00 0.000000000000e+00
2.490000000000e+02 0.000000000000e+00 2.850000000000e+01 0.000000000000e+00 0.000000000000e+00 0.000000000000e+00
2.500000000000e+02 0.000000000000e+00 2.850000000000e+01 0.000000000000e+00 0.000000000000e+00 0.000000000000e+00
2.490000000000e+02 0.000000000000e+00 2.950000000000e+01 0.000000000000e+00 0.000000000000e+00 0.000000000000e+00
2.500000000000e+02 0.000000000000e+00 2.950000000000e+01 0.000000000000e+00 0.000000000000e+00 0.000000000000e+00
VARIABLES = "X","Y","Z",VELOCITY1_X,VELOCITY1_Y,VELOCITY1_Z
ZONE T="1.797693134862e+308s", 
2.490000000000e+02 0.000000000000e+00 5.000000000000e-01 8.768895376660e-10 -1.757598866347e-12 0.000000000000e+00
2.500000000000e+02 0.000000000000e+00 5.000000000000e-01 8.804046739863e-10 -1.757597025131e-12 0.000000000000e+00
2.490000000000e+02 0.000000000000e+00 1.500000000000e+00 4.252731253455e-10 -4.367498751109e-12 0.000000000000e+00
2.500000000000e+02 0.000000000000e+00 1.500000000000e+00 4.269779031892e-10 -4.367498888065e-12 0.000000000000e+00
2.490000000000e+02 0.000000000000e+00 2.500000000000e+00 4.088429186796e-09 -1.341445682577e-11 0.000000000000e+00
2.500000000000e+02 0.000000000000e+00 2.500000000000e+00 4.104818335451e-09 -1.341440068402e-11 0.000000000000e+00
2.490000000000e+02 0.000000000000e+00 3.500000000000e+00 5.079105977073e-11 -2.171064419772e-11 0.000000000000e+00
2.500000000000e+02 0.000000000000e+00 3.500000000000e+00 5.099466357339e-11 -2.171064692343e-11 0.000000000000e+00
2.490000000000e+02 0.000000000000e+00 4.500000000000e+00 4.107913290000e-09 -3.004622801953e-11 0.000000000000e+00
2.500000000000e+02 0.000000000000e+00 4.500000000000e+00 4.124381093585e-09 -3.004589390285e-11 0.000000000000e+00
2.490000000000e+02 0.000000000000e+00 5.500000000000e+00 4.696661628863e-09 -4.769294075487e-11 0.000000000000e+00
2.500000000000e+02 0.000000000000e+00 5.500000000000e+00 4.715488845496e-09 -4.769297058179e-11 0.000000000000e+00
2.490000000000e+02 0.000000000000e+00 6.500000000000e+00 3.740743199829e-07 -8.068742825993e-10 0.000000000000e+00
2.500000000000e+02 0.000000000000e+00 6.500000000000e+00 3.755738493682e-07 -8.068755981053e-10 0.000000000000e+00
2.490000000000e+02 0.000000000000e+00 7.500000000000e+00 1.683230965421e-08 -1.590362103231e-09 0.000000000000e+00
2.500000000000e+02 0.000000000000e+00 7.500000000000e+00 1.689978438981e-08 -1.590362734852e-09 0.000000000000e+00
2.490000000000e+02 0.000000000000e+00 8.500000000000e+00 2.165885430375e-07 -2.058213133340e-09 0.000000000000e+00
2.500000000000e+02 0.000000000000e+00 8.500000000000e+00 2.174567734428e-07 -2.058212134511e-09 0.000000000000e+00
2.490000000000e+02 0.000000000000e+00 9.500000000000e+00 4.017891367844e-08 -2.572854363392e-09 0.000000000000e+00
2.500000000000e+02 0.000000000000e+00 9.500000000000e+00 4.033997782742e-08 -2.572856283065e-09 0.000000000000e+00
2.490000000000e+02 0.000000000000e+00 1.050000000000e+01 3.090617498292e-09 -2.659581058208e-09 0.000000000000e+00
2.500000000000e+02 0.000000000000e+00 1.050000000000e+01 3.103006902663e-09 -2.659580913053e-09 0.000000000000e+00
2.490000000000e+02 0.000000000000e+00 1.150000000000e+01 6.132631832625e-09 -2.678067154224e-09 0.000000000000e+00
2.500000000000e+02 0.000000000000e+00 1.150000000000e+01 6.157215428932e-09 -2.678067314828e-09 0.000000000000e+00
2.490000000000e+02 0.000000000000e+00 1.250000000000e+01 1.097102268329e-09 -2.692557903978e-09 0.000000000000e+00
2.500000000000e+02 0.000000000000e+00 1.250000000000e+01 1.101500197624e-09 -2.692557936709e-09 0.000000000000e+00
2.490000000000e+02 0.000000000000e+00 1.350000000000e+01 1.271588830871e-08 -2.720243550415e-09 0.000000000000e+00
2.500000000000e+02 0.000000000000e+00 1.350000000000e+01 1.276686258700e-08 -2.720243227725e-09 0.000000000000e+00
2.490000000000e+02 0.000000000000e+00 1.450000000000e+01 1.343144040513e-07 -3.014938480029e-09 0.000000000000e+00
2.500000000000e+02 0.000000000000e+00 1.450000000000e+01 1.348528216412e-07 -3.014939978378e-09 0.000000000000e+00
2.490000000000e+02 0.000000000000e+00 1.550000000000e+01 7.159848230650e-09 -3.298496270257e-09 0.000000000000e+00
2.500000000000e+02 0.000000000000e+00 1.550000000000e+01 7.188549580842e-09 -3.298496290455e-09 0.000000000000e+00
2.490000000000e+02 0.000000000000e+00 1.650000000000e+01 1.593873150975e-08 -3.344793260101e-09 0.000000000000e+00
2.500000000000e+02 0.000000000000e+00 1.650000000000e+01 1.600262417442e-08 -3.344793166065e-09 0.000000000000e+00
2.490000000000e+02 0.000000000000e+00 1.750000000000e+01 1.248474029614e-08 -3.401762438542e-09 0.000000000000e+00
2.500000000000e+02 0.000000000000e+00 1.750000000000e+01 1.253478731942e-08 -3.401762428249e-09 0.000000000000e+00
2.490000000000e+02 0.000000000000e+00 1.850000000000e+01 1.892995424729e-08 -3.464727173771e-09 0.000000000000e+00
2.500000000000e+02 0.000000000000e+00 1.850000000000e+01 1.900583773164e-08 -3.464727295452e-09 0.000000000000e+00
2.490000000000e+02 0.000000000000e+00 1.950000000000e+01 3.068049401153e-09 -3.508818076698e-09 0.000000000000e+00
2.500000000000e+02 0.000000000000e+00 1.950000000000e+01 3.080348059226e-09 -3.508818060336e-09 0.000000000000e+00
2.490000000000e+02 0.000000000000e+00 2.050000000000e+01 3.742838418496e-10 -3.515717494332e-09 0.000000000000e+00
2.500000000000e+02 0.000000000000e+00 2.050000000000e+01 3.757841871681e-10 -3.515717544402e-09 0.000000000000e+00
2.490000000000e+02 0.000000000000e+00 2.150000000000e+01 5.860254274610e-09 -3.528213825059e-09 0.000000000000e+00
2.500000000000e+02 0.000000000000e+00 2.150000000000e+01 5.883745483807e-09 -3.528213920931e-09 0.000000000000e+00
2.490000000000e+02 0.000000000000e+00 2.250000000000e+01 1.572501343976e-07 -3.855138693888e-09 0.000000000000e+00
2.500000000000e+02 0.000000000000e+00 2.250000000000e+01 1.578804946609e-07 -3.855141221893e-09 0.000000000000e+00
2.490000000000e+02 0.000000000000e+00 2.350000000000e+01 8.073026191539e-10 -4.171933697620e-09 0.000000000000e+00
2.500000000000e+02 0.000000000000e+00 2.350000000000e+01 8.105388359661e-10 -4.171933764967e-09 0.000000000000e+00
2.490000000000e+02 0.000000000000e+00 2.450000000000e+01 2.772967675224e-07 -4.729348176072e-09 0.000000000000e+00
2.500000000000e+02 0.000000000000e+00 2.450000000000e+01 2.784083658991e-07 -4.729348454691e-09 0.000000000000e+00
2.490000000000e+02 0.000000000000e+00 2.550000000000e+01 8.857605899238e-08 -5.462666060418e-09 0.000000000000e+00
2.500000000000e+02 0.000000000000e+00 2.550000000000e+01 8.893113552820e-08 -5.462667482114e-09 0.000000000000e+00
2.490000000000e+02 0.000000000000e+00 2.650000000000e+01 2.457796595128e-08 -5.689458671725e-09 0.000000000000e+00
2.500000000000e+02 0.000000000000e+00 2.650000000000e+01 2.467649245568e-08 -5.689458557430e-09 0.000000000000e+00
2.490000000000e+02 0.000000000000e+00 2.750000000000e+01 2.242233091714e-10 -5.739170346069e-09 0.000000000000e+00
2.500000000000e+02 0.000000000000e+00 2.750000000000e+01 2.251221512520e-10 -5.739170351233e-09 0.000000000000e+00
2.490000000000e+02 0.000000000000e+00 2.850000000000e+01 6.578374373712e-09 -5.752804902438e-09 0.000000000000e+00
2.500000000000e+02 0.000000000000e+00 2.850000000000e+01 6.604744868968e-09 -5.752805021329e-09 0.000000000000e+00
2.490000000000e+02 0.000000000000e+00 2.950000000000e+01 9.031297324561e-10 -5.767800160959e-09 0.000000000000e+00
2.500000000000e+02 0.000000000000e+00 2.950000000000e+01 9.067500837662e-10 -5.767800173430e-09 0.000000000000e+00
