 TITLE = "Profiles along polylines"
 VARIABLES = "DIST" "HEAD" "VELOCITY_X1" "VELOCITY_Y1" "VELOCITY_Z1" 
 ZONE T="TIME=0.000000000000e+00"
0.000000000000e+00 3.000000000000e+01 0.000000000000e+00 0.000000000000e+00 0.000000000000e+00 
1.000000000000e+00 3.000000000000e+01 0.000000000000e+00 0.000000000000e+00 0.000000000000e+00 
2.000000000000e+00 3.000000000000e+01 0.000000000000e+00 0.000000000000e+00 0.000000000000e+00 
3.000000000000e+00 3.000000000000e+01 0.000000000000e+00 0.000000000000e+00 0.000000000000e+00 
4.000000000000e+00 3.000000000000e+01 0.000000000000e+00 0.000000000000e+00 0.000000000000e+00 
5.000000000000e+00 3.000000000000e+01 0.000000000000e+00 0.000000000000e+00 0.000000000000e+00 
6.000000000000e+00 3.000000000000e+01 0.000000000000e+00 0.000000000000e+00 0.000000000000e+00 
7.000000000000e+00 3.000000000000e+01 0.000000000000e+00 0.000000000000e+00 0.000000000000e+00 
8.000000000000e+00 3.000000000000e+01 0.000000000000e+00 0.000000000000e+00 0.000000000000e+00 
9.000000000000e+00 3.000000000000e+01 0.000000000000e+00 0.000000000000e+00 0.000000000000e+00 
1.000000000000e+01 3.000000000000e+01 0.000000000000e+00 0.000000000000e+00 0.000000000000e+00 
1.100000000000e+01 3.000000000000e+01 0.000000000000e+00 0.000000000000e+00 0.000000000000e+00 
1.200000000000e+01 3.000000000000e+01 0.000000000000e+00 0.000000000000e+00 0.000000000000e+00 
1.300000000000e+01 3.000000000000e+01 0.000000000000e+00 0.000000000000e+00 0.000000000000e+00 
1.400000000000e+01 3.000000000000e+01 0.000000000000e+00 0.000000000000e+00 0.000000000000e+00 
1.500000000000e+01 3.000000000000e+01 0.000000000000e+00 0.000000000000e+00 0.000000000000e+00 
1.600000000000e+01 3.000000000000e+01 0.000000000000e+00 0.000000000000e+00 0.000000000000e+00 
1.700000000000e+01 3.000000000000e+01 0.000000000000e+00 0.000000000000e+00 0.000000000000e+00 
1.800000000000e+01 3.000000000000e+01 0.000000000000e+00 0.000000000000e+00 0.000000000000e+00 
1.900000000000e+01 3.000000000000e+01 0.000000000000e+00 0.000000000000e+00 0.000000000000e+00 
2.000000000000e+01 3.000000000000e+01 0.000000000000e+00 0.000000000000e+00 0.000000000000e+00 
2.100000000000e+01 3.000000000000e+01 0.000000000000e+00 0.000000000000e+00 0.000000000000e+00 
2.200000000000e+01 3.000000000000e+01 0.000000000000e+00 0.000000000000e+00 0.000000000000e+00 
2.300000000000e+01 3.000000000000e+01 0.000000000000e+00 0.000000000000e+00 0.000000000000e+00 
2.400000000000e+01 3.000000000000e+01 0.000000000000e+00 0.000000000000e+00 0.000000000000e+00 
2.500000000000e+01 3.000000000000e+01 0.000000000000e+00 0.000000000000e+00 0.000000000000e+00 
2.600000000000e+01 3.000000000000e+01 0.000000000000e+00 0.000000000000e+00 0.000000000000e+00 
2.700000000000e+01 3.000000000000e+01 0.000000000000e+00 0.000000000000e+00 0.000000000000e+00 
2.800000000000e+01 3.000000000000e+01 0.000000000000e+00 0.000000000000e+00 0.000000000000e+00 
2.900000000000e+01 3.000000000000e+01 0.000000000000e+00 0.000000000000e+00 0.000000000000e+00 
3.000000000000e+01 3.000000000000e+01 0.000000000000e+00 0.000000000000e+00 0.000000000000e+00 
 TITLE = "Profiles along polylines"
 VARIABLES = "DIST" "HEAD" "VELOCITY_X1" "VELOCITY_Y1" "VELOCITY_Z1" 
 ZONE T="TIME=1.797693134862e+308"
0.000000000000e+00 3.001049722206e+01 3.335862754522e-09 -2.551041388947e-13 0.000000000000e+00 
1.000000000000e+00 3.001049730230e+01 2.476861902743e-09 -4.445661012511e-13 0.000000000000e+00 
2.000000000000e+00 3.001049771347e+01 8.585907283383e-09 -1.291606051276e-12 0.000000000000e+00 
3.000000000000e+00 3.001049784496e+01 7.873669214198e-09 -2.552463651929e-12 0.000000000000e+00 
4.000000000000e+00 3.001051498068e+01 7.923428474081e-09 -3.794630050220e-12 0.000000000000e+00 
5.000000000000e+00 3.001051527834e+01 1.677550267536e-08 -5.787419079292e-12 0.000000000000e+00 
6.000000000000e+00 3.001051569769e+01 7.217068471420e-07 -6.546741831546e-11 0.000000000000e+00 
7.000000000000e+00 3.001051578896e+01 7.448363344498e-07 -1.840086394418e-10 0.000000000000e+00 
8.000000000000e+00 3.001051979054e+01 4.449275543220e-07 -2.807029555476e-10 0.000000000000e+00 
9.000000000000e+00 3.001052019443e+01 4.894473200862e-07 -3.573691375812e-10 0.000000000000e+00 
1.000000000000e+01 3.001052292333e+01 8.250084712995e-08 -4.043963533804e-10 0.000000000000e+00 
1.100000000000e+01 3.001055962066e+01 1.764573789047e-08 -4.128902078160e-10 0.000000000000e+00 
1.200000000000e+01 3.001057826347e+01 1.385568055133e-08 -4.159183460227e-10 0.000000000000e+00 
1.300000000000e+01 3.001068316498e+01 2.672926640375e-08 -4.207655196460e-10 0.000000000000e+00 
1.400000000000e+01 3.001069236632e+01 2.847552833217e-07 -4.620166353936e-10 0.000000000000e+00 
1.500000000000e+01 3.001069339258e+01 2.740203737536e-07 -5.362576039077e-10 0.000000000000e+00 
1.600000000000e+01 3.001071545365e+01 4.482863471778e-08 -5.791266209877e-10 0.000000000000e+00 
1.700000000000e+01 3.001072558542e+01 5.521327482815e-08 -5.936797827347e-10 0.000000000000e+00 
1.800000000000e+01 3.001073888016e+01 6.109669357623e-08 -6.112262255724e-10 0.000000000000e+00 
1.900000000000e+01 3.001074792224e+01 4.281734519205e-08 -6.274049520190e-10 0.000000000000e+00 
2.000000000000e+01 3.001080493089e+01 6.734360692658e-09 -6.354450003196e-10 0.000000000000e+00 
2.100000000000e+01 3.001127409614e+01 1.270543729159e-08 -6.420003684629e-10 0.000000000000e+00 
2.200000000000e+01 3.001130455919e+01 3.332652608911e-07 -7.912619385381e-10 0.000000000000e+00 
2.300000000000e+01 3.001130619946e+01 3.229828180239e-07 -1.075358128509e-09 0.000000000000e+00 
2.400000000000e+01 3.001172144195e+01 5.861037209078e-07 -1.817135014415e-09 0.000000000000e+00 
2.500000000000e+01 3.001172384764e+01 7.711644187024e-07 -3.214916839562e-09 0.000000000000e+00 
2.600000000000e+01 3.001173633670e+01 2.386092427100e-07 -4.265804721596e-09 0.000000000000e+00 
2.700000000000e+01 3.001178706309e+01 5.239221550082e-08 -4.584011750732e-09 0.000000000000e+00 
2.800000000000e+01 3.001750346995e+01 1.711241459008e-08 -4.896145497038e-09 0.000000000000e+00 
2.900000000000e+01 3.001771916487e+01 1.887752883892e-08 -5.423156131227e-09 0.000000000000e+00 
3.000000000000e+01 3.001946027280e+01 4.568594044216e-09 -5.701485990998e-09 0.000000000000e+00 
