 TITLE = "Profiles along polylines"
 VARIABLES = "DIST" "HEAD" "VELOCITY_X1" "VELOCITY_Y1" "VELOCITY_Z1" 
 ZONE T="TIME=0.000000000000e+00"
0.000000000000e+00 3.000000000000e+01 0.000000000000e+00 0.000000000000e+00 0.000000000000e+00 
1.000000000000e+00 3.000000000000e+01 0.000000000000e+00 0.000000000000e+00 0.000000000000e+00 
2.000000000000e+00 3.000000000000e+01 0.000000000000e+00 0.000000000000e+00 0.000000000000e+00 
3.000000000000e+00 3.000000000000e+01 0.000000000000e+00 0.000000000000e+00 0.000000000000e+00 
4.000000000000e+00 3.000000000000e+01 0.000000000000e+00 0.000000000000e+00 0.000000000000e+00 
5.000000000000e+00 3.000000000000e+01 0.000000000000e+00 0.000000000000e+00 0.000000000000e+00 
6.000000000000e+00 3.000000000000e+01 0.000000000000e+00 0.000000000000e+00 0.000000000000e+00 
7.000000000000e+00 3.000000000000e+01 0.000000000000e+00 0.000000000000e+00 0.000000000000e+00 
8.000000000000e+00 3.000000000000e+01 0.000000000000e+00 0.000000000000e+00 0.000000000000e+00 
9.000000000000e+00 3.000000000000e+01 0.000000000000e+00 0.000000000000e+00 0.000000000000e+00 
1.000000000000e+01 3.000000000000e+01 0.000000000000e+00 0.000000000000e+00 0.000000000000e+00 
1.100000000000e+01 3.000000000000e+01 0.000000000000e+00 0.000000000000e+00 0.000000000000e+00 
1.200000000000e+01 3.000000000000e+01 0.000000000000e+00 0.000000000000e+00 0.000000000000e+00 
1.300000000000e+01 3.000000000000e+01 0.000000000000e+00 0.000000000000e+00 0.000000000000e+00 
1.400000000000e+01 3.000000000000e+01 0.000000000000e+00 0.000000000000e+00 0.000000000000e+00 
1.500000000000e+01 3.000000000000e+01 0.000000000000e+00 0.000000000000e+00 0.000000000000e+00 
1.600000000000e+01 3.000000000000e+01 0.000000000000e+00 0.000000000000e+00 0.000000000000e+00 
1.700000000000e+01 3.000000000000e+01 0.000000000000e+00 0.000000000000e+00 0.000000000000e+00 
1.800000000000e+01 3.000000000000e+01 0.000000000000e+00 0.000000000000e+00 0.000000000000e+00 
1.900000000000e+01 3.000000000000e+01 0.000000000000e+00 0.000000000000e+00 0.000000000000e+00 
2.000000000000e+01 3.000000000000e+01 0.000000000000e+00 0.000000000000e+00 0.000000000000e+00 
2.100000000000e+01 3.000000000000e+01 0.000000000000e+00 0.000000000000e+00 0.000000000000e+00 
2.200000000000e+01 3.000000000000e+01 0.000000000000e+00 0.000000000000e+00 0.000000000000e+00 
2.300000000000e+01 3.000000000000e+01 0.000000000000e+00 0.000000000000e+00 0.000000000000e+00 
2.400000000000e+01 3.000000000000e+01 0.000000000000e+00 0.000000000000e+00 0.000000000000e+00 
2.500000000000e+01 3.000000000000e+01 0.000000000000e+00 0.000000000000e+00 0.000000000000e+00 
2.600000000000e+01 3.000000000000e+01 0.000000000000e+00 0.000000000000e+00 0.000000000000e+00 
2.700000000000e+01 3.000000000000e+01 0.000000000000e+00 0.000000000000e+00 0.000000000000e+00 
2.800000000000e+01 3.000000000000e+01 0.000000000000e+00 0.000000000000e+00 0.000000000000e+00 
2.900000000000e+01 3.000000000000e+01 0.000000000000e+00 0.000000000000e+00 0.000000000000e+00 
3.000000000000e+01 3.000000000000e+01 0.000000000000e+00 0.000000000000e+00 0.000000000000e+00 
 TITLE = "Profiles along polylines"
 VARIABLES = "DIST" "HEAD" "VELOCITY_X1" "VELOCITY_Y1" "VELOCITY_Z1" 
 ZONE T="TIME=1.797693134862e+308"
0.000000000000e+00 3.000000000000e+01 3.338424222002e-09 -2.855064230119e-22 0.000000000000e+00 
1.000000000000e+00 3.000000000000e+01 2.478764252945e-09 -1.016813864773e-21 0.000000000000e+00 
2.000000000000e+00 3.000000000000e+01 8.592510102522e-09 1.124503153624e-20 0.000000000000e+00 
3.000000000000e+00 3.000000000000e+01 7.879726779247e-09 1.110769325117e-20 0.000000000000e+00 
4.000000000000e+00 3.000000000000e+01 7.929849521949e-09 7.763953251967e-23 0.000000000000e+00 
5.000000000000e+00 3.000000000000e+01 1.678911004311e-08 1.608056079359e-20 0.000000000000e+00 
6.000000000000e+00 3.000000000000e+01 7.222930722073e-07 8.756792231678e-19 0.000000000000e+00 
7.000000000000e+00 3.000000000000e+01 7.454415470726e-07 4.104114841505e-19 0.000000000000e+00 
8.000000000000e+00 3.000000000000e+01 4.452943384114e-07 3.200540859121e-19 0.000000000000e+00 
9.000000000000e+00 3.000000000000e+01 4.898513990167e-07 3.299891502506e-19 0.000000000000e+00 
1.000000000000e+01 3.000000000000e+01 8.256964397958e-08 -6.980189897758e-20 0.000000000000e+00 
1.100000000000e+01 3.000000000000e+01 1.766242424148e-08 4.244396302129e-22 0.000000000000e+00 
1.200000000000e+01 3.000000000000e+01 1.386956996645e-08 7.299529329560e-21 0.000000000000e+00 
1.300000000000e+01 3.000000000000e+01 2.676456305098e-08 -4.160866327559e-20 0.000000000000e+00 
1.400000000000e+01 3.000000000000e+01 2.851394446846e-07 -4.569109107066e-19 0.000000000000e+00 
1.500000000000e+01 3.000000000000e+01 2.743912025203e-07 -4.052577533679e-19 0.000000000000e+00 
1.600000000000e+01 3.000000000000e+01 4.489404197146e-08 5.874929777858e-20 0.000000000000e+00 
1.700000000000e+01 3.000000000000e+01 5.529659424533e-08 8.394060077820e-20 0.000000000000e+00 
1.800000000000e+01 3.000000000000e+01 6.119306432573e-08 -1.278756502547e-21 0.000000000000e+00 
1.900000000000e+01 3.000000000000e+01 4.288697387398e-08 -3.953491693608e-20 0.000000000000e+00 
2.000000000000e+01 3.000000000000e+01 6.747452840482e-09 -2.861155740665e-21 0.000000000000e+00 
2.100000000000e+01 3.000000000000e+01 1.276223470316e-08 -5.174132871328e-21 0.000000000000e+00 
2.200000000000e+01 3.000000000000e+01 3.348127816565e-07 3.666181859357e-19 0.000000000000e+00 
2.300000000000e+01 3.000000000000e+01 3.244909549432e-07 3.736262172011e-19 0.000000000000e+00 
2.400000000000e+01 3.000000000000e+01 5.938364178732e-07 -1.359206241904e-18 0.000000000000e+00 
2.500000000000e+01 3.000000000000e+01 7.814798604268e-07 1.613992474267e-18 0.000000000000e+00 
2.600000000000e+01 3.000000000000e+01 2.421013306746e-07 3.054853676260e-19 0.000000000000e+00 
2.700000000000e+01 3.000000000000e+01 5.345028587953e-08 4.787882621053e-20 0.000000000000e+00 
2.800000000000e+01 3.000000000000e+01 2.704943870148e-08 3.101009643582e-21 0.000000000000e+00 
2.900000000000e+01 3.000000000000e+01 3.094404463330e-08 -7.919834312540e-21 0.000000000000e+00 
3.000000000000e+01 3.000000000000e+01 1.233126336997e-08 -5.448742092463e-21 0.000000000000e+00 
