 TITLE = "Profiles along polylines"
 VARIABLES = "DIST" "HEAD" "VELOCITY_X1" "VELOCITY_Y1" "VELOCITY_Z1" 
 ZONE T="TIME=0.000000000000e+00"
0.000000000000e+00 3.000000000000e+01 0.000000000000e+00 0.000000000000e+00 0.000000000000e+00 
1.000000000000e+00 3.000000000000e+01 0.000000000000e+00 0.000000000000e+00 0.000000000000e+00 
2.000000000000e+00 3.000000000000e+01 0.000000000000e+00 0.000000000000e+00 0.000000000000e+00 
3.000000000000e+00 3.000000000000e+01 0.000000000000e+00 0.000000000000e+00 0.000000000000e+00 
4.000000000000e+00 3.000000000000e+01 0.000000000000e+00 0.000000000000e+00 0.000000000000e+00 
5.000000000000e+00 3.000000000000e+01 0.000000000000e+00 0.000000000000e+00 0.000000000000e+00 
6.000000000000e+00 3.000000000000e+01 0.000000000000e+00 0.000000000000e+00 0.000000000000e+00 
7.000000000000e+00 3.000000000000e+01 0.000000000000e+00 0.000000000000e+00 0.000000000000e+00 
8.000000000000e+00 3.000000000000e+01 0.000000000000e+00 0.000000000000e+00 0.000000000000e+00 
9.000000000000e+00 3.000000000000e+01 0.000000000000e+00 0.000000000000e+00 0.000000000000e+00 
1.000000000000e+01 3.000000000000e+01 0.000000000000e+00 0.000000000000e+00 0.000000000000e+00 
1.100000000000e+01 3.000000000000e+01 0.000000000000e+00 0.000000000000e+00 0.000000000000e+00 
1.200000000000e+01 3.000000000000e+01 0.000000000000e+00 0.000000000000e+00 0.000000000000e+00 
1.300000000000e+01 3.000000000000e+01 0.000000000000e+00 0.000000000000e+00 0.000000000000e+00 
1.400000000000e+01 3.000000000000e+01 0.000000000000e+00 0.000000000000e+00 0.000000000000e+00 
1.500000000000e+01 3.000000000000e+01 0.000000000000e+00 0.000000000000e+00 0.000000000000e+00 
1.600000000000e+01 3.000000000000e+01 0.000000000000e+00 0.000000000000e+00 0.000000000000e+00 
1.700000000000e+01 3.000000000000e+01 0.000000000000e+00 0.000000000000e+00 0.000000000000e+00 
1.800000000000e+01 3.000000000000e+01 0.000000000000e+00 0.000000000000e+00 0.000000000000e+00 
1.900000000000e+01 3.000000000000e+01 0.000000000000e+00 0.000000000000e+00 0.000000000000e+00 
2.000000000000e+01 3.000000000000e+01 0.000000000000e+00 0.000000000000e+00 0.000000000000e+00 
2.100000000000e+01 3.000000000000e+01 0.000000000000e+00 0.000000000000e+00 0.000000000000e+00 
2.200000000000e+01 3.000000000000e+01 0.000000000000e+00 0.000000000000e+00 0.000000000000e+00 
2.300000000000e+01 3.000000000000e+01 0.000000000000e+00 0.000000000000e+00 0.000000000000e+00 
2.400000000000e+01 3.000000000000e+01 0.000000000000e+00 0.000000000000e+00 0.000000000000e+00 
2.500000000000e+01 3.000000000000e+01 0.000000000000e+00 0.000000000000e+00 0.000000000000e+00 
2.600000000000e+01 3.000000000000e+01 0.000000000000e+00 0.000000000000e+00 0.000000000000e+00 
2.700000000000e+01 3.000000000000e+01 0.000000000000e+00 0.000000000000e+00 0.000000000000e+00 
2.800000000000e+01 3.000000000000e+01 0.000000000000e+00 0.000000000000e+00 0.000000000000e+00 
2.900000000000e+01 3.000000000000e+01 0.000000000000e+00 0.000000000000e+00 0.000000000000e+00 
3.000000000000e+01 3.000000000000e+01 0.000000000000e+00 0.000000000000e+00 0.000000000000e+00 
 TITLE = "Profiles along polylines"
 VARIABLES = "DIST" "HEAD" "VELOCITY_X1" "VELOCITY_Y1" "VELOCITY_Z1" 
 ZONE T="TIME=1.797693134862e+308"
0.000000000000e+00 3.041207124759e+01 1.757508446113e-09 -1.757679507313e-12 0.000000000000e+00 
1.000000000000e+00 3.041207180041e+01 1.304931680982e-09 -3.062576974338e-12 0.000000000000e+00 
2.000000000000e+00 3.041207463278e+01 4.523300590468e-09 -8.891094162547e-12 0.000000000000e+00 
3.000000000000e+00 3.041207553771e+01 4.148022210489e-09 -1.756258787999e-11 0.000000000000e+00 
4.000000000000e+00 3.041219342574e+01 4.167548209176e-09 -2.587857947940e-11 0.000000000000e+00 
5.000000000000e+00 3.041219544301e+01 8.823298259491e-09 -3.886988640122e-11 0.000000000000e+00 
6.000000000000e+00 3.041219824363e+01 3.795764427815e-07 -4.272983836254e-10 0.000000000000e+00 
7.000000000000e+00 3.041219883854e+01 3.917378976402e-07 -1.198627493270e-09 0.000000000000e+00 
8.000000000000e+00 3.041222489631e+01 2.339172345793e-07 -1.824288207147e-09 0.000000000000e+00 
9.000000000000e+00 3.041222751718e+01 2.573134872784e-07 -2.315530919246e-09 0.000000000000e+00 
1.000000000000e+01 3.041224517764e+01 4.336154674834e-08 -2.616197645865e-09 0.000000000000e+00 
1.100000000000e+01 3.041248250740e+01 9.242864089669e-09 -2.668802155219e-09 0.000000000000e+00 
1.200000000000e+01 3.041260294414e+01 7.245109591078e-09 -2.685290916106e-09 0.000000000000e+00 
1.300000000000e+01 3.041327980957e+01 1.384237095509e-08 -2.706379697217e-09 0.000000000000e+00 
1.400000000000e+01 3.041333880872e+01 1.473430267175e-07 -2.867578125140e-09 0.000000000000e+00 
1.500000000000e+01 3.041334499946e+01 1.417751683066e-07 -3.156702569250e-09 0.000000000000e+00 
1.600000000000e+01 3.041347205597e+01 2.314771185512e-08 -3.321621271804e-09 0.000000000000e+00 
1.700000000000e+01 3.041352993223e+01 2.848393080390e-08 -3.373255006267e-09 0.000000000000e+00 
1.800000000000e+01 3.041360507885e+01 3.148151695221e-08 -3.433222672470e-09 0.000000000000e+00 
1.900000000000e+01 3.041365555715e+01 2.204479608791e-08 -3.486750377203e-09 0.000000000000e+00 
2.000000000000e+01 3.041397097303e+01 3.449655859926e-09 -3.512244784495e-09 0.000000000000e+00 
2.100000000000e+01 3.041656155867e+01 6.247806849428e-09 -3.521943127705e-09 0.000000000000e+00 
2.200000000000e+01 3.041672760282e+01 1.634575422219e-07 -3.691665811017e-09 0.000000000000e+00 
2.300000000000e+01 3.041673436422e+01 1.583938364219e-07 -4.013528799272e-09 0.000000000000e+00 
2.400000000000e+01 3.041815960159e+01 2.786960821517e-07 -4.450647121513e-09 0.000000000000e+00 
2.500000000000e+01 3.041816430537e+01 3.666516756102e-07 -5.096020893103e-09 0.000000000000e+00 
2.600000000000e+01 3.041818131426e+01 1.133949005202e-07 -5.576061628990e-09 0.000000000000e+00 
2.700000000000e+01 3.041824515718e+01 2.485498723168e-08 -5.714313970002e-09 0.000000000000e+00 
2.800000000000e+01 3.042530436740e+01 6.817078984220e-09 -5.745987731084e-09 0.000000000000e+00 
2.900000000000e+01 3.042554555162e+01 7.497430634864e-09 -5.760302869504e-09 0.000000000000e+00 
3.000000000000e+01 3.042730691045e+01 1.810104622486e-09 -5.767800221264e-09 0.000000000000e+00 
