 TITLE = "Profiles along polylines"
 VARIABLES = "DIST" "HEAD" "VELOCITY_X1" "VELOCITY_Y1" "VELOCITY_Z1" 
 ZONE T="TIME=0.000000000000e+00"
0.000000000000e+00 3.000000000000e+01 0.000000000000e+00 0.000000000000e+00 0.000000000000e+00 
1.000000000000e+00 3.000000000000e+01 0.000000000000e+00 0.000000000000e+00 0.000000000000e+00 
2.000000000000e+00 3.000000000000e+01 0.000000000000e+00 0.000000000000e+00 0.000000000000e+00 
3.000000000000e+00 3.000000000000e+01 0.000000000000e+00 0.000000000000e+00 0.000000000000e+00 
4.000000000000e+00 3.000000000000e+01 0.000000000000e+00 0.000000000000e+00 0.000000000000e+00 
5.000000000000e+00 3.000000000000e+01 0.000000000000e+00 0.000000000000e+00 0.000000000000e+00 
6.000000000000e+00 3.000000000000e+01 0.000000000000e+00 0.000000000000e+00 0.000000000000e+00 
7.000000000000e+00 3.000000000000e+01 0.000000000000e+00 0.000000000000e+00 0.000000000000e+00 
8.000000000000e+00 3.000000000000e+01 0.000000000000e+00 0.000000000000e+00 0.000000000000e+00 
9.000000000000e+00 3.000000000000e+01 0.000000000000e+00 0.000000000000e+00 0.000000000000e+00 
1.000000000000e+01 3.000000000000e+01 0.000000000000e+00 0.000000000000e+00 0.000000000000e+00 
1.100000000000e+01 3.000000000000e+01 0.000000000000e+00 0.000000000000e+00 0.000000000000e+00 
1.200000000000e+01 3.000000000000e+01 0.000000000000e+00 0.000000000000e+00 0.000000000000e+00 
1.300000000000e+01 3.000000000000e+01 0.000000000000e+00 0.000000000000e+00 0.000000000000e+00 
1.400000000000e+01 3.000000000000e+01 0.000000000000e+00 0.000000000000e+00 0.000000000000e+00 
1.500000000000e+01 3.000000000000e+01 0.000000000000e+00 0.000000000000e+00 0.000000000000e+00 
1.600000000000e+01 3.000000000000e+01 0.000000000000e+00 0.000000000000e+00 0.000000000000e+00 
1.700000000000e+01 3.000000000000e+01 0.000000000000e+00 0.000000000000e+00 0.000000000000e+00 
1.800000000000e+01 3.000000000000e+01 0.000000000000e+00 0.000000000000e+00 0.000000000000e+00 
1.900000000000e+01 3.000000000000e+01 0.000000000000e+00 0.000000000000e+00 0.000000000000e+00 
2.000000000000e+01 3.000000000000e+01 0.000000000000e+00 0.000000000000e+00 0.000000000000e+00 
2.100000000000e+01 3.000000000000e+01 0.000000000000e+00 0.000000000000e+00 0.000000000000e+00 
2.200000000000e+01 3.000000000000e+01 0.000000000000e+00 0.000000000000e+00 0.000000000000e+00 
2.300000000000e+01 3.000000000000e+01 0.000000000000e+00 0.000000000000e+00 0.000000000000e+00 
2.400000000000e+01 3.000000000000e+01 0.000000000000e+00 0.000000000000e+00 0.000000000000e+00 
2.500000000000e+01 3.000000000000e+01 0.000000000000e+00 0.000000000000e+00 0.000000000000e+00 
2.600000000000e+01 3.000000000000e+01 0.000000000000e+00 0.000000000000e+00 0.000000000000e+00 
2.700000000000e+01 3.000000000000e+01 0.000000000000e+00 0.000000000000e+00 0.000000000000e+00 
2.800000000000e+01 3.000000000000e+01 0.000000000000e+00 0.000000000000e+00 0.000000000000e+00 
2.900000000000e+01 3.000000000000e+01 0.000000000000e+00 0.000000000000e+00 0.000000000000e+00 
3.000000000000e+01 3.000000000000e+01 0.000000000000e+00 0.000000000000e+00 0.000000000000e+00 
 TITLE = "Profiles along polylines"
 VARIABLES = "DIST" "HEAD" "VELOCITY_X1" "VELOCITY_Y1" "VELOCITY_Z1" 
 ZONE T="TIME=1.797693134862e+308"
0.000000000000e+00 3.051570996491e+01 8.786471046233e-10 -1.757599519325e-12 0.000000000000e+00 
1.000000000000e+00 3.051571051771e+01 6.523863147389e-10 -3.062549314336e-12 0.000000000000e+00 
2.000000000000e+00 3.051571335009e+01 2.261374638207e-09 -8.890945416745e-12 0.000000000000e+00 
3.000000000000e+00 3.051571425500e+01 2.073758309967e-09 -1.756251965457e-11 0.000000000000e+00 
4.000000000000e+00 3.051583214404e+01 2.083520024699e-09 -2.587825206048e-11 0.000000000000e+00 
5.000000000000e+00 3.051583416125e+01 4.411111235285e-09 -3.886941242407e-11 0.000000000000e+00 
6.000000000000e+00 3.051583696186e+01 1.897650800078e-07 -4.272842365265e-10 0.000000000000e+00 
7.000000000000e+00 3.051583755675e+01 1.958450653829e-07 -1.198619100222e-09 0.000000000000e+00 
8.000000000000e+00 3.051586361471e+01 1.169443523286e-07 -1.824287529337e-09 0.000000000000e+00 
9.000000000000e+00 3.051586623556e+01 1.286410526948e-07 -2.315534325591e-09 0.000000000000e+00 
1.000000000000e+01 3.051588389616e+01 2.167812850504e-08 -2.616218598231e-09 0.000000000000e+00 
1.100000000000e+01 3.051612122791e+01 4.620867948191e-09 -2.668824108549e-09 0.000000000000e+00 
1.200000000000e+01 3.051624166563e+01 3.622112383902e-09 -2.685312623841e-09 0.000000000000e+00 
1.300000000000e+01 3.051691853654e+01 6.920338339043e-09 -2.706400548222e-09 0.000000000000e+00 
1.400000000000e+01 3.051697753612e+01 7.366249413145e-08 -2.867591626604e-09 0.000000000000e+00 
1.500000000000e+01 3.051698372688e+01 7.087890570375e-08 -3.156718186388e-09 0.000000000000e+00 
1.600000000000e+01 3.051711078431e+01 1.157243833505e-08 -3.321644740201e-09 0.000000000000e+00 
1.700000000000e+01 3.051716866097e+01 1.424022091402e-08 -3.373277810993e-09 0.000000000000e+00 
1.800000000000e+01 3.051724380809e+01 1.573882989885e-08 -3.433244833522e-09 0.000000000000e+00 
1.900000000000e+01 3.051729428671e+01 1.102104725108e-08 -3.486772647393e-09 0.000000000000e+00 
2.000000000000e+01 3.051760970465e+01 1.724616355579e-09 -3.512267792146e-09 0.000000000000e+00 
2.100000000000e+01 3.052020030726e+01 3.123516917194e-09 -3.521965749804e-09 0.000000000000e+00 
2.200000000000e+01 3.052036635246e+01 8.171865727716e-08 -3.691677713794e-09 0.000000000000e+00 
2.300000000000e+01 3.052037311386e+01 7.918711742172e-08 -4.013537612563e-09 0.000000000000e+00 
2.400000000000e+01 3.052179835671e+01 1.393307435647e-07 -4.450641417019e-09 0.000000000000e+00 
2.500000000000e+01 3.052180306046e+01 1.833030830230e-07 -5.096008292935e-09 0.000000000000e+00 
2.600000000000e+01 3.052182006936e+01 5.669041293962e-08 -5.576062987220e-09 0.000000000000e+00 
2.700000000000e+01 3.052188391229e+01 1.242595083783e-08 -5.714314407791e-09 0.000000000000e+00 
2.800000000000e+01 3.052894312301e+01 3.408116177257e-09 -5.745987682796e-09 0.000000000000e+00 
2.900000000000e+01 3.052918430720e+01 3.748249726400e-09 -5.760302592895e-09 0.000000000000e+00 
3.000000000000e+01 3.053094566602e+01 9.049398904019e-10 -5.767800170088e-09 0.000000000000e+00 
