VARIABLES = "X","Y","Z",VELOCITY1_X,VELOCITY1_Y,VELOCITY1_Z
ZONE T="0.000000000000e+00s", 
4.900000000000e+01 0.000000000000e+00 5.000000000000e-01 0.000000000000e+00 0.000000000000e+00 0.000000000000e+00
5.000000000000e+01 0.000000000000e+00 5.000000000000e-01 0.000000000000e+00 0.000000000000e+00 0.000000000000e+00
4.900000000000e+01 0.000000000000e+00 1.500000000000e+00 0.000000000000e+00 0.000000000000e+00 0.000000000000e+00
5.000000000000e+01 0.000000000000e+00 1.500000000000e+00 0.000000000000e+00 0.000000000000e+00 0.000000000000e+00
4.900000000000e+01 0.000000000000e+00 2.500000000000e+00 0.000000000000e+00 0.000000000000e+00 0.000000000000e+00
5.000000000000e+01 0.000000000000e+00 2.500000000000e+00 0.000000000000e+00 0.000000000000e+00 0.000000000000e+00
4.900000000000e+01 0.000000000000e+00 3.500000000000e+00 0.000000000000e+00 0.000000000000e+00 0.000000000000e+00
5.000000000000e+01 0.000000000000e+00 3.500000000000e+00 0.000000000000e+00 0.000000000000e+00 0.000000000000e+00
4.900000000000e+01 0.000000000000e+00 4.500000000000e+00 0.000000000000e+00 0.000000000000e+00 0.000000000000e+00
5.000000000000e+01 0.000000000000e+00 4.500000000000e+00 0.000000000000e+00 0.000000000000e+00 0.000000000000e+00
4.900000000000e+01 0.000000000000e+00 5.500000000000e+00 0.000000000000e+00 0.000000000000e+00 0.000000000000e+00
5.000000000000e+01 0.000000000000e+00 5.500000000000e+00 0.000000000000e+00 0.000000000000e+00 0.000000000000e+00
4.900000000000e+01 0.000000000000e+00 6.500000000000e+00 0.000000000000e+00 0.000000000000e+00 0.000000000000e+00
5.000000000000e+01 0.000000000000e+00 6.500000000000e+00 0.000000000000e+00 0.000000000000e+00 0.000000000000e+00
4.900000000000e+01 0.000000000000e+00 7.500000000000e+00 0.000000000000e+00 0.000000000000e+00 0.000000000000e+00
5.000000000000e+01 0.000000000000e+00 7.500000000000e+00 0.000000000000e+00 0.000000000000e+00 0.000000000000e+00
4.900000000000e+01 0.000000000000e+00 8.500000000000e+00 0.000000000000e+00 0.000000000000e+00 0.000000000000e+00
5.000000000000e+01 0.000000000000e+00 8.500000000000e+00 0.000000000000e+00 0.000000000000e+00 0.000000000000e+00
4.900000000000e+01 0.000000000000e+00 9.500000000000e+00 0.000000000000e+00 0.000000000000e+00 0.000000000000e+00
5.000000000000e+01 0.000000000000e+00 9.500000000000e+00 0.000000000000e+00 0.000000000000e+00 0.000000000000e+00
4.900000000000e+01 0.000000000000e+00 1.050000000000e+01 0.000000000000e+00 0.000000000000e+00 0.000000000000e+00
5.000000000000e+01 0.000000000000e+00 1.050000000000e+01 0.000000000000e+00 0.000000000000e+00 0.000000000000e+00
4.900000000000e+01 0.000000000000e+00 1.150000000000e+01 0.000000000000e+00 0.000000000000e+00 0.000000000000e+00
5.000000000000e+01 0.000000000000e+00 1.150000000000e+01 0.000000000000e+00 0.000000000000e+00 0.000000000000e+00
4.900000000000e+01 0.000000000000e+00 1.250000000000e+01 0.000000000000e+00 0.000000000000e+00 0.000000000000e+00
5.000000000000e+01 0.000000000000e+00 1.250000000000e+01 0.000000000000e+00 0.000000000000e+00 0.000000000000e+00
4.900000000000e+01 0.000000000000e+00 1.350000000000e+01 0.000000000000e+00 0.000000000000e+00 0.000000000000e+00
5.000000000000e+01 0.000000000000e+00 1.350000000000e+01 0.000000000000e+00 0.000000000000e+00 0.000000000000e+00
4.900000000000e+01 0.000000000000e+00 1.450000000000e+01 0.000000000000e+00 0.000000000000e+00 0.000000000000e+00
5.000000000000e+01 0.000000000000e+00 1.450000000000e+01 0.000000000000e+00 0.000000000000e+00 0.000000000000e+00
4.900000000000e+01 0.000000000000e+00 1.550000000000e+01 0.000000000000e+00 0.000000000000e+00 0.000000000000e+00
5.000000000000e+01 0.000000000000e+00 1.550000000000e+01 0.000000000000e+00 0.000000000000e+00 0.000000000000e+00
4.900000000000e+01 0.000000000000e+00 1.650000000000e+01 0.000000000000e+00 0.000000000000e+00 0.000000000000e+00
5.000000000000e+01 0.000000000000e+00 1.650000000000e+01 0.000000000000e+00 0.000000000000e+00 0.000000000000e+00
4.900000000000e+01 0.000000000000e+00 1.750000000000e+01 0.000000000000e+00 0.000000000000e+00 0.000000000000e+00
5.000000000000e+01 0.000000000000e+00 1.750000000000e+01 0.000000000000e+00 0.000000000000e+00 0.000000000000e+00
4.900000000000e+01 0.000000000000e+00 1.850000000000e+01 0.000000000000e+00 0.000000000000e+00 0.000000000000e+00
5.000000000000e+01 0.000000000000e+00 1.850000000000e+01 0.000000000000e+00 0.000000000000e+00 0.000000000000e+00
4.900000000000e+01 0.000000000000e+00 1.950000000000e+01 0.000000000000e+00 0.000000000000e+00 0.000000000000e+00
5.000000000000e+01 0.000000000000e+00 1.950000000000e+01 0.000000000000e+00 0.000000000000e+00 0.000000000000e+00
4.900000000000e+01 0.000000000000e+00 2.050000000000e+01 0.000000000000e+00 0.000000000000e+00 0.000000000000e+00
5.000000000000e+01 0.000000000000e+00 2.050000000000e+01 0.000000000000e+00 0.000000000000e+00 0.000000000000e+00
4.900000000000e+01 0.000000000000e+00 2.150000000000e+01 0.000000000000e+00 0.000000000000e+00 0.000000000000e+00
5.000000000000e+01 0.000000000000e+00 2.150000000000e+01 0.000000000000e+00 0.000000000000e+00 0.000000000000e+00
4.900000000000e+01 0.000000000000e+00 2.250000000000e+01 0.000000000000e+00 0.000000000000e+00 0.000000000000e+00
5.000000000000e+01 0.000000000000e+00 2.250000000000e+01 0.000000000000e+00 0.000000000000e+00 0.000000000000e+00
4.900000000000e+01 0.000000000000e+00 2.350000000000e+01 0.000000000000e+00 0.000000000000e+00 0.000000000000e+00
5.000000000000e+01 0.000000000000e+00 2.350000000000e+01 0.000000000000e+00 0.000000000000e+00 0.000000000000e+00
4.900000000000e+01 0.000000000000e+00 2.450000000000e+01 0.000000000000e+00 0.000000000000e+00 0.000000000000e+00
5.000000000000e+01 0.000000000000e+00 2.450000000000e+01 0.000000000000e+00 0.000000000000e+00 0.000000000000e+00
4.900000000000e+01 0.000000000000e+00 2.550000000000e+01 0.000000000000e+00 0.000000000000e+00 0.000000000000e+00
5.000000000000e+01 0.000000000000e+00 2.550000000000e+01 0.000000000000e+00 0.000000000000e+00 0.000000000000e+00
4.900000000000e+01 0.000000000000e+00 2.650000000000e+01 0.000000000000e+00 0.000000000000e+00 0.000000000000e+00
5.000000000000e+01 0.000000000000e+00 2.650000000000e+01 0.000000000000e+00 0.000000000000e+00 0.000000000000e+00
4.900000000000e+01 0.000000000000e+00 2.750000000000e+01 0.000000000000e+00 0.000000000000e+00 0.000000000000e+00
5.000000000000e+01 0.000000000000e+00 2.750000000000e+01 0.000000000000e+00 0.000000000000e+00 0.000000000000e+00
4.900000000000e+01 0.000000000000e+00 2.850000000000e+01 0.000000000000e+00 0.000000000000e+00 0.000000000000e+00
5.000000000000e+01 0.000000000000e+00 2.850000000000e+01 0.000000000000e+00 0.000000000000e+00 0.000000000000e+00
4.900000000000e+01 0.000000000000e+00 2.950000000000e+01 0.000000000000e+00 0.000000000000e+00 0.000000000000e+00
5.000000000000e+01 0.000000000000e+00 2.950000000000e+01 0.000000000000e+00 0.000000000000e+00 0.000000000000e+00
VARIABLES = "X","Y","Z",VELOCITY1_X,VELOCITY1_Y,VELOCITY1_Z
ZONE T="1.797693134862e+308s", 
4.900000000000e+01 0.000000000000e+00 5.000000000000e-01 1.739534548060e-10 -1.757296421177e-12 0.000000000000e+00
5.000000000000e+01 0.000000000000e+00 5.000000000000e-01 1.774677991180e-10 -1.757280686121e-12 0.000000000000e+00
4.900000000000e+01 0.000000000000e+00 1.500000000000e+00 3.161855245010e-09 -3.545667322710e-11 0.000000000000e+00
5.000000000000e+01 0.000000000000e+00 1.500000000000e+00 3.225733563687e-09 -3.545636319761e-11 0.000000000000e+00
4.900000000000e+01 0.000000000000e+00 2.500000000000e+00 3.119459561279e-08 -3.825413429216e-10 0.000000000000e+00
5.000000000000e+01 0.000000000000e+00 2.500000000000e+00 3.182481400997e-08 -3.825380330172e-10 0.000000000000e+00
4.900000000000e+01 0.000000000000e+00 3.500000000000e+00 4.448044187108e-11 -6.982098033624e-10 0.000000000000e+00
5.000000000000e+01 0.000000000000e+00 3.500000000000e+00 4.537906613015e-11 -6.982098922781e-10 0.000000000000e+00
4.900000000000e+01 0.000000000000e+00 4.500000000000e+00 2.522517621637e-09 -7.241410605860e-10 0.000000000000e+00
5.000000000000e+01 0.000000000000e+00 4.500000000000e+00 2.573476622286e-09 -7.241413311868e-10 0.000000000000e+00
4.900000000000e+01 0.000000000000e+00 5.500000000000e+00 1.216562228206e-09 -7.619236770084e-10 0.000000000000e+00
5.000000000000e+01 0.000000000000e+00 5.500000000000e+00 1.241138724825e-09 -7.619238135179e-10 0.000000000000e+00
4.900000000000e+01 0.000000000000e+00 6.500000000000e+00 1.601488713166e-10 -7.758352299633e-10 0.000000000000e+00
5.000000000000e+01 0.000000000000e+00 6.500000000000e+00 1.633841419071e-10 -7.758351057527e-10 0.000000000000e+00
4.900000000000e+01 0.000000000000e+00 7.500000000000e+00 8.436372122061e-11 -7.783054829878e-10 0.000000000000e+00
5.000000000000e+01 0.000000000000e+00 7.500000000000e+00 8.606804166299e-11 -7.783053362698e-10 0.000000000000e+00
4.900000000000e+01 0.000000000000e+00 8.500000000000e+00 1.304989941939e-09 -7.923406633027e-10 0.000000000000e+00
5.000000000000e+01 0.000000000000e+00 8.500000000000e+00 1.331354201111e-09 -7.923404500957e-10 0.000000000000e+00
4.900000000000e+01 0.000000000000e+00 9.500000000000e+00 6.131034413787e-10 -8.117211624597e-10 0.000000000000e+00
5.000000000000e+01 0.000000000000e+00 9.500000000000e+00 6.254897782594e-10 -8.117214691739e-10 0.000000000000e+00
4.900000000000e+01 0.000000000000e+00 1.050000000000e+01 2.176382787803e-10 -8.201152534986e-10 0.000000000000e+00
5.000000000000e+01 0.000000000000e+00 1.050000000000e+01 2.220351633170e-10 -8.201158072246e-10 0.000000000000e+00
4.900000000000e+01 0.000000000000e+00 1.150000000000e+01 1.757129017002e-08 -9.998228815477e-10 0.000000000000e+00
5.000000000000e+01 0.000000000000e+00 1.150000000000e+01 1.792628102582e-08 -9.998233390920e-10 0.000000000000e+00
4.900000000000e+01 0.000000000000e+00 1.250000000000e+01 5.500878996496e-08 -1.733108806189e-09 0.000000000000e+00
5.000000000000e+01 0.000000000000e+00 1.250000000000e+01 5.612012874089e-08 -1.733106820131e-09 0.000000000000e+00
4.900000000000e+01 0.000000000000e+00 1.350000000000e+01 8.110426255269e-10 -2.297155447719e-09 0.000000000000e+00
5.000000000000e+01 0.000000000000e+00 1.350000000000e+01 8.274280342513e-10 -2.297154987367e-09 0.000000000000e+00
4.900000000000e+01 0.000000000000e+00 1.450000000000e+01 2.664465174046e-08 -2.574513612427e-09 0.000000000000e+00
5.000000000000e+01 0.000000000000e+00 1.450000000000e+01 2.718293657144e-08 -2.574513326945e-09 0.000000000000e+00
4.900000000000e+01 0.000000000000e+00 1.550000000000e+01 7.420707767343e-08 -3.593427224216e-09 0.000000000000e+00
5.000000000000e+01 0.000000000000e+00 1.550000000000e+01 7.570623437178e-08 -3.593427286859e-09 0.000000000000e+00
4.900000000000e+01 0.000000000000e+00 1.650000000000e+01 9.317013454866e-10 -4.352708060998e-09 0.000000000000e+00
5.000000000000e+01 0.000000000000e+00 1.650000000000e+01 9.505238831875e-10 -4.352707706463e-09 0.000000000000e+00
4.900000000000e+01 0.000000000000e+00 1.750000000000e+01 2.476664377024e-09 -4.387140699401e-09 0.000000000000e+00
5.000000000000e+01 0.000000000000e+00 1.750000000000e+01 2.526698546582e-09 -4.387140300879e-09 0.000000000000e+00
4.900000000000e+01 0.000000000000e+00 1.850000000000e+01 1.420337458848e-09 -4.426512603262e-09 0.000000000000e+00
5.000000000000e+01 0.000000000000e+00 1.850000000000e+01 1.449031386303e-09 -4.426512202519e-09 0.000000000000e+00
4.900000000000e+01 0.000000000000e+00 1.950000000000e+01 3.339116128364e-09 -4.474594364439e-09 0.000000000000e+00
5.000000000000e+01 0.000000000000e+00 1.950000000000e+01 3.406573362938e-09 -4.474593905847e-09 0.000000000000e+00
4.900000000000e+01 0.000000000000e+00 2.050000000000e+01 6.086256874654e-10 -4.514481524465e-09 0.000000000000e+00
5.000000000000e+01 0.000000000000e+00 2.050000000000e+01 6.209211823079e-10 -4.514481125336e-09 0.000000000000e+00
4.900000000000e+01 0.000000000000e+00 2.150000000000e+01 4.875669417210e-09 -4.569884835007e-09 0.000000000000e+00
5.000000000000e+01 0.000000000000e+00 2.150000000000e+01 4.974167157340e-09 -4.569884407589e-09 0.000000000000e+00
4.900000000000e+01 0.000000000000e+00 2.250000000000e+01 7.424876686287e-11 -4.619908046511e-09 0.000000000000e+00
5.000000000000e+01 0.000000000000e+00 2.250000000000e+01 7.574873537729e-11 -4.619908140731e-09 0.000000000000e+00
4.900000000000e+01 0.000000000000e+00 2.350000000000e+01 4.296582109886e-08 -5.054702559436e-09 0.000000000000e+00
5.000000000000e+01 0.000000000000e+00 2.350000000000e+01 4.383384052652e-08 -5.054697660156e-09 0.000000000000e+00
4.900000000000e+01 0.000000000000e+00 2.450000000000e+01 7.970505825226e-09 -5.569405443097e-09 0.000000000000e+00
5.000000000000e+01 0.000000000000e+00 2.450000000000e+01 8.131530101718e-09 -5.569403777034e-09 0.000000000000e+00
4.900000000000e+01 0.000000000000e+00 2.550000000000e+01 8.149088963510e-10 -5.658178432883e-09 0.000000000000e+00
5.000000000000e+01 0.000000000000e+00 2.550000000000e+01 8.313720881772e-10 -5.658178433254e-09 0.000000000000e+00
4.900000000000e+01 0.000000000000e+00 2.650000000000e+01 1.007569461748e-11 -5.666513101188e-09 0.000000000000e+00
5.000000000000e+01 0.000000000000e+00 2.650000000000e+01 1.027924781009e-11 -5.666513111557e-09 0.000000000000e+00
4.900000000000e+01 0.000000000000e+00 2.750000000000e+01 3.755233529903e-09 -5.704548830896e-09 0.000000000000e+00
5.000000000000e+01 0.000000000000e+00 2.750000000000e+01 3.831094920883e-09 -5.704549146438e-09 0.000000000000e+00
4.900000000000e+01 0.000000000000e+00 2.850000000000e+01 1.162529168298e-09 -5.754242697240e-09 0.000000000000e+00
5.000000000000e+01 0.000000000000e+00 2.850000000000e+01 1.186013934263e-09 -5.754243025923e-09 0.000000000000e+00
4.900000000000e+01 0.000000000000e+00 2.950000000000e+01 1.791585342779e-10 -5.767800278903e-09 0.000000000000e+00
5.000000000000e+01 0.000000000000e+00 2.950000000000e+01 1.827777947961e-10 -5.767800306033e-09 0.000000000000e+00
