VARIABLES = "X","Y","Z",VELOCITY1_X,VELOCITY1_Y,VELOCITY1_Z
ZONE T="0.000000000000e+00s", 
4.990000000000e+02 0.000000000000e+00 5.000000000000e-01 0.000000000000e+00 0.000000000000e+00 0.000000000000e+00
5.000000000000e+02 0.000000000000e+00 5.000000000000e-01 0.000000000000e+00 0.000000000000e+00 0.000000000000e+00
4.990000000000e+02 0.000000000000e+00 1.500000000000e+00 0.000000000000e+00 0.000000000000e+00 0.000000000000e+00
5.000000000000e+02 0.000000000000e+00 1.500000000000e+00 0.000000000000e+00 0.000000000000e+00 0.000000000000e+00
4.990000000000e+02 0.000000000000e+00 2.500000000000e+00 0.000000000000e+00 0.000000000000e+00 0.000000000000e+00
5.000000000000e+02 0.000000000000e+00 2.500000000000e+00 0.000000000000e+00 0.000000000000e+00 0.000000000000e+00
4.990000000000e+02 0.000000000000e+00 3.500000000000e+00 0.000000000000e+00 0.000000000000e+00 0.000000000000e+00
5.000000000000e+02 0.000000000000e+00 3.500000000000e+00 0.000000000000e+00 0.000000000000e+00 0.000000000000e+00
4.990000000000e+02 0.000000000000e+00 4.500000000000e+00 0.000000000000e+00 0.000000000000e+00 0.000000000000e+00
5.000000000000e+02 0.000000000000e+00 4.500000000000e+00 0.000000000000e+00 0.000000000000e+00 0.000000000000e+00
4.990000000000e+02 0.000000000000e+00 5.500000000000e+00 0.000000000000e+00 0.000000000000e+00 0.000000000000e+00
5.000000000000e+02 0.000000000000e+00 5.500000000000e+00 0.000000000000e+00 0.000000000000e+00 0.000000000000e+00
4.990000000000e+02 0.000000000000e+00 6.500000000000e+00 0.000000000000e+00 0.000000000000e+00 0.000000000000e+00
5.000000000000e+02 0.000000000000e+00 6.500000000000e+00 0.000000000000e+00 0.000000000000e+00 0.000000000000e+00
4.990000000000e+02 0.000000000000e+00 7.500000000000e+00 0.000000000000e+00 0.000000000000e+00 0.000000000000e+00
5.000000000000e+02 0.000000000000e+00 7.500000000000e+00 0.000000000000e+00 0.000000000000e+00 0.000000000000e+00
4.990000000000e+02 0.000000000000e+00 8.500000000000e+00 0.000000000000e+00 0.000000000000e+00 0.000000000000e+00
5.000000000000e+02 0.000000000000e+00 8.500000000000e+00 0.000000000000e+00 0.000000000000e+00 0.000000000000e+00
4.990000000000e+02 0.000000000000e+00 9.500000000000e+00 0.000000000000e+00 0.000000000000e+00 0.000000000000e+00
5.000000000000e+02 0.000000000000e+00 9.500000000000e+00 0.000000000000e+00 0.000000000000e+00 0.000000000000e+00
4.990000000000e+02 0.000000000000e+00 1.050000000000e+01 0.000000000000e+00 0.000000000000e+00 0.000000000000e+00
5.000000000000e+02 0.000000000000e+00 1.050000000000e+01 0.000000000000e+00 0.000000000000e+00 0.000000000000e+00
4.990000000000e+02 0.000000000000e+00 1.150000000000e+01 0.000000000000e+00 0.000000000000e+00 0.000000000000e+00
5.000000000000e+02 0.000000000000e+00 1.150000000000e+01 0.000000000000e+00 0.000000000000e+00 0.000000000000e+00
4.990000000000e+02 0.000000000000e+00 1.250000000000e+01 0.000000000000e+00 0.000000000000e+00 0.000000000000e+00
5.000000000000e+02 0.000000000000e+00 1.250000000000e+01 0.000000000000e+00 0.000000000000e+00 0.000000000000e+00
4.990000000000e+02 0.000000000000e+00 1.350000000000e+01 0.000000000000e+00 0.000000000000e+00 0.000000000000e+00
5.000000000000e+02 0.000000000000e+00 1.350000000000e+01 0.000000000000e+00 0.000000000000e+00 0.000000000000e+00
4.990000000000e+02 0.000000000000e+00 1.450000000000e+01 0.000000000000e+00 0.000000000000e+00 0.000000000000e+00
5.000000000000e+02 0.000000000000e+00 1.450000000000e+01 0.000000000000e+00 0.000000000000e+00 0.000000000000e+00
4.990000000000e+02 0.000000000000e+00 1.550000000000e+01 0.000000000000e+00 0.000000000000e+00 0.000000000000e+00
5.000000000000e+02 0.000000000000e+00 1.550000000000e+01 0.000000000000e+00 0.000000000000e+00 0.000000000000e+00
4.990000000000e+02 0.000000000000e+00 1.650000000000e+01 0.000000000000e+00 0.000000000000e+00 0.000000000000e+00
5.000000000000e+02 0.000000000000e+00 1.650000000000e+01 0.000000000000e+00 0.000000000000e+00 0.000000000000e+00
4.990000000000e+02 0.000000000000e+00 1.750000000000e+01 0.000000000000e+00 0.000000000000e+00 0.000000000000e+00
5.000000000000e+02 0.000000000000e+00 1.750000000000e+01 0.000000000000e+00 0.000000000000e+00 0.000000000000e+00
4.990000000000e+02 0.000000000000e+00 1.850000000000e+01 0.000000000000e+00 0.000000000000e+00 0.000000000000e+00
5.000000000000e+02 0.000000000000e+00 1.850000000000e+01 0.000000000000e+00 0.000000000000e+00 0.000000000000e+00
4.990000000000e+02 0.000000000000e+00 1.950000000000e+01 0.000000000000e+00 0.000000000000e+00 0.000000000000e+00
5.000000000000e+02 0.000000000000e+00 1.950000000000e+01 0.000000000000e+00 0.000000000000e+00 0.000000000000e+00
4.990000000000e+02 0.000000000000e+00 2.050000000000e+01 0.000000000000e+00 0.000000000000e+00 0.000000000000e+00
5.000000000000e+02 0.000000000000e+00 2.050000000000e+01 0.000000000000e+00 0.000000000000e+00 0.000000000000e+00
4.990000000000e+02 0.000000000000e+00 2.150000000000e+01 0.000000000000e+00 0.000000000000e+00 0.000000000000e+00
5.000000000000e+02 0.000000000000e+00 2.150000000000e+01 0.000000000000e+00 0.000000000000e+00 0.000000000000e+00
4.990000000000e+02 0.000000000000e+00 2.250000000000e+01 0.000000000000e+00 0.000000000000e+00 0.000000000000e+00
5.000000000000e+02 0.000000000000e+00 2.250000000000e+01 0.000000000000e+00 0.000000000000e+00 0.000000000000e+00
4.990000000000e+02 0.000000000000e+00 2.350000000000e+01 0.000000000000e+00 0.000000000000e+00 0.000000000000e+00
5.000000000000e+02 0.000000000000e+00 2.350000000000e+01 0.000000000000e+00 0.000000000000e+00 0.000000000000e+00
4.990000000000e+02 0.000000000000e+00 2.450000000000e+01 0.000000000000e+00 0.000000000000e+00 0.000000000000e+00
5.000000000000e+02 0.000000000000e+00 2.450000000000e+01 0.000000000000e+00 0.000000000000e+00 0.000000000000e+00
4.990000000000e+02 0.000000000000e+00 2.550000000000e+01 0.000000000000e+00 0.000000000000e+00 0.000000000000e+00
5.000000000000e+02 0.000000000000e+00 2.550000000000e+01 0.000000000000e+00 0.000000000000e+00 0.000000000000e+00
4.990000000000e+02 0.000000000000e+00 2.650000000000e+01 0.000000000000e+00 0.000000000000e+00 0.000000000000e+00
5.000000000000e+02 0.000000000000e+00 2.650000000000e+01 0.000000000000e+00 0.000000000000e+00 0.000000000000e+00
4.990000000000e+02 0.000000000000e+00 2.750000000000e+01 0.000000000000e+00 0.000000000000e+00 0.000000000000e+00
5.000000000000e+02 0.000000000000e+00 2.750000000000e+01 0.000000000000e+00 0.000000000000e+00 0.000000000000e+00
4.990000000000e+02 0.000000000000e+00 2.850000000000e+01 0.000000000000e+00 0.000000000000e+00 0.000000000000e+00
5.000000000000e+02 0.000000000000e+00 2.850000000000e+01 0.000000000000e+00 0.000000000000e+00 0.000000000000e+00
4.990000000000e+02 0.000000000000e+00 2.950000000000e+01 0.000000000000e+00 0.000000000000e+00 0.000000000000e+00
5.000000000000e+02 0.000000000000e+00 2.950000000000e+01 0.000000000000e+00 0.000000000000e+00 0.000000000000e+00
VARIABLES = "X","Y","Z",VELOCITY1_X,VELOCITY1_Y,VELOCITY1_Z
ZONE T="1.797693134862e+308s", 
4.990000000000e+02 0.000000000000e+00 5.000000000000e-01 1.755671778313e-09 -1.757734359524e-12 0.000000000000e+00
5.000000000000e+02 0.000000000000e+00 5.000000000000e-01 1.759187427125e-09 -1.757743904479e-12 0.000000000000e+00
4.990000000000e+02 0.000000000000e+00 1.500000000000e+00 3.191186687276e-08 -3.546432479600e-11 0.000000000000e+00
5.000000000000e+02 0.000000000000e+00 1.500000000000e+00 3.197576886196e-08 -3.546450157441e-11 0.000000000000e+00
4.990000000000e+02 0.000000000000e+00 2.500000000000e+00 3.148397388907e-07 -3.826143552797e-10 0.000000000000e+00
5.000000000000e+02 0.000000000000e+00 2.500000000000e+00 3.154701905085e-07 -3.826161115142e-10 0.000000000000e+00
4.990000000000e+02 0.000000000000e+00 3.500000000000e+00 4.489307515581e-10 -6.982068597991e-10 0.000000000000e+00
5.000000000000e+02 0.000000000000e+00 3.500000000000e+00 4.498297147359e-10 -6.982065797974e-10 0.000000000000e+00
4.990000000000e+02 0.000000000000e+00 4.500000000000e+00 2.545924000160e-08 -7.241454263988e-10 0.000000000000e+00
5.000000000000e+02 0.000000000000e+00 4.500000000000e+00 2.551022121703e-08 -7.241448860163e-10 0.000000000000e+00
4.990000000000e+02 0.000000000000e+00 5.500000000000e+00 1.227850832447e-08 -7.619211216419e-10 0.000000000000e+00
5.000000000000e+02 0.000000000000e+00 5.500000000000e+00 1.230309554962e-08 -7.619207264911e-10 0.000000000000e+00
4.990000000000e+02 0.000000000000e+00 6.500000000000e+00 1.616349199730e-09 -7.758302182063e-10 0.000000000000e+00
5.000000000000e+02 0.000000000000e+00 6.500000000000e+00 1.619585866053e-09 -7.758299127756e-10 0.000000000000e+00
4.990000000000e+02 0.000000000000e+00 7.500000000000e+00 8.514649305652e-10 -7.783008367260e-10 0.000000000000e+00
5.000000000000e+02 0.000000000000e+00 7.500000000000e+00 8.531699626009e-10 -7.783005208294e-10 0.000000000000e+00
4.990000000000e+02 0.000000000000e+00 8.500000000000e+00 1.317096809250e-08 -7.923396906513e-10 0.000000000000e+00
5.000000000000e+02 0.000000000000e+00 8.500000000000e+00 1.319734292501e-08 -7.923392456790e-10 0.000000000000e+00
4.990000000000e+02 0.000000000000e+00 9.500000000000e+00 6.187913912995e-09 -8.117179783494e-10 0.000000000000e+00
5.000000000000e+02 0.000000000000e+00 9.500000000000e+00 6.200305201185e-09 -8.117180045857e-10 0.000000000000e+00
4.990000000000e+02 0.000000000000e+00 1.050000000000e+01 2.196575338432e-09 -8.201114561204e-10 0.000000000000e+00
5.000000000000e+02 0.000000000000e+00 1.050000000000e+01 2.200973991399e-09 -8.201116620453e-10 0.000000000000e+00
4.990000000000e+02 0.000000000000e+00 1.150000000000e+01 1.773435599992e-07 -9.998679536541e-10 0.000000000000e+00
5.000000000000e+02 0.000000000000e+00 1.150000000000e+01 1.776986966496e-07 -9.998664201390e-10 0.000000000000e+00
4.990000000000e+02 0.000000000000e+00 1.250000000000e+01 5.551928665409e-07 -1.733226873074e-09 0.000000000000e+00
5.000000000000e+02 0.000000000000e+00 1.250000000000e+01 5.563046607319e-07 -1.733220243354e-09 0.000000000000e+00
4.990000000000e+02 0.000000000000e+00 1.350000000000e+01 8.185692548378e-09 -2.297149981745e-09 0.000000000000e+00
5.000000000000e+02 0.000000000000e+00 1.350000000000e+01 8.202084702487e-09 -2.297149633729e-09 0.000000000000e+00
4.990000000000e+02 0.000000000000e+00 1.450000000000e+01 2.689190505873e-07 -2.574587083399e-09 0.000000000000e+00
5.000000000000e+02 0.000000000000e+00 1.450000000000e+01 2.694575708018e-07 -2.574582834042e-09 0.000000000000e+00
4.990000000000e+02 0.000000000000e+00 1.550000000000e+01 7.489569449574e-07 -3.593594519949e-09 0.000000000000e+00
5.000000000000e+02 0.000000000000e+00 1.550000000000e+01 7.504567581047e-07 -3.593581957590e-09 0.000000000000e+00
4.990000000000e+02 0.000000000000e+00 1.650000000000e+01 9.403471961419e-09 -4.352695381349e-09 0.000000000000e+00
5.000000000000e+02 0.000000000000e+00 1.650000000000e+01 9.422302716490e-09 -4.352695320122e-09 0.000000000000e+00
4.990000000000e+02 0.000000000000e+00 1.750000000000e+01 2.499646031091e-08 -4.387135494160e-09 0.000000000000e+00
5.000000000000e+02 0.000000000000e+00 1.750000000000e+01 2.504651636079e-08 -4.387135264664e-09 0.000000000000e+00
4.990000000000e+02 0.000000000000e+00 1.850000000000e+01 1.433516918666e-08 -4.426509469258e-09 0.000000000000e+00
5.000000000000e+02 0.000000000000e+00 1.850000000000e+01 1.436387571696e-08 -4.426509321597e-09 0.000000000000e+00
4.990000000000e+02 0.000000000000e+00 1.950000000000e+01 3.370099253331e-08 -4.474600598253e-09 0.000000000000e+00
5.000000000000e+02 0.000000000000e+00 1.950000000000e+01 3.376847950546e-08 -4.474600215768e-09 0.000000000000e+00
4.990000000000e+02 0.000000000000e+00 2.050000000000e+01 6.142729102723e-09 -4.514485572505e-09 0.000000000000e+00
5.000000000000e+02 0.000000000000e+00 2.050000000000e+01 6.155030036663e-09 -4.514485566893e-09 0.000000000000e+00
4.990000000000e+02 0.000000000000e+00 2.150000000000e+01 4.920906043052e-08 -4.569902304661e-09 0.000000000000e+00
5.000000000000e+02 0.000000000000e+00 2.150000000000e+01 4.930760238056e-08 -4.569901779413e-09 0.000000000000e+00
4.990000000000e+02 0.000000000000e+00 2.250000000000e+01 7.493765539586e-10 -4.619908713875e-09 0.000000000000e+00
5.000000000000e+02 0.000000000000e+00 2.250000000000e+01 7.508771846541e-10 -4.619908718711e-09 0.000000000000e+00
4.990000000000e+02 0.000000000000e+00 2.350000000000e+01 4.336451415993e-07 -5.054810993676e-09 0.000000000000e+00
5.000000000000e+02 0.000000000000e+00 2.350000000000e+01 4.345134890761e-07 -5.054812438908e-09 0.000000000000e+00
4.990000000000e+02 0.000000000000e+00 2.450000000000e+01 8.044465523785e-08 -5.569416418722e-09 0.000000000000e+00
5.000000000000e+02 0.000000000000e+00 2.450000000000e+01 8.060574027758e-08 -5.569418053731e-09 0.000000000000e+00
4.990000000000e+02 0.000000000000e+00 2.550000000000e+01 8.224704070235e-09 -5.658177596427e-09 0.000000000000e+00
5.000000000000e+02 0.000000000000e+00 2.550000000000e+01 8.241173475506e-09 -5.658177650032e-09 0.000000000000e+00
4.990000000000e+02 0.000000000000e+00 2.650000000000e+01 1.016918798340e-10 -5.666513446899e-09 0.000000000000e+00
5.000000000000e+02 0.000000000000e+00 2.650000000000e+01 1.018955117340e-10 -5.666513415846e-09 0.000000000000e+00
4.990000000000e+02 0.000000000000e+00 2.750000000000e+01 3.790082837001e-08 -5.704560863162e-09 0.000000000000e+00
5.000000000000e+02 0.000000000000e+00 2.750000000000e+01 3.797672402117e-08 -5.704560467882e-09 0.000000000000e+00
4.990000000000e+02 0.000000000000e+00 2.850000000000e+01 1.173317795078e-08 -5.754244380136e-09 0.000000000000e+00
5.000000000000e+02 0.000000000000e+00 2.850000000000e+01 1.175667333051e-08 -5.754244406860e-09 0.000000000000e+00
4.990000000000e+02 0.000000000000e+00 2.950000000000e+01 1.808212282838e-09 -5.767800031393e-09 0.000000000000e+00
5.000000000000e+02 0.000000000000e+00 2.950000000000e+01 1.811833162261e-09 -5.767800051275e-09 0.000000000000e+00
