 TITLE = "Profiles along polylines"
 VARIABLES = "DIST" "HEAD" "VELOCITY_X1" "VELOCITY_Y1" "VELOCITY_Z1" 
 ZONE T="TIME=0.000000000000e+00"
0.000000000000e+00 3.000000000000e+01 0.000000000000e+00 0.000000000000e+00 0.000000000000e+00 
1.000000000000e+00 3.000000000000e+01 0.000000000000e+00 0.000000000000e+00 0.000000000000e+00 
2.000000000000e+00 3.000000000000e+01 0.000000000000e+00 0.000000000000e+00 0.000000000000e+00 
3.000000000000e+00 3.000000000000e+01 0.000000000000e+00 0.000000000000e+00 0.000000000000e+00 
4.000000000000e+00 3.000000000000e+01 0.000000000000e+00 0.000000000000e+00 0.000000000000e+00 
5.000000000000e+00 3.000000000000e+01 0.000000000000e+00 0.000000000000e+00 0.000000000000e+00 
6.000000000000e+00 3.000000000000e+01 0.000000000000e+00 0.000000000000e+00 0.000000000000e+00 
7.000000000000e+00 3.000000000000e+01 0.000000000000e+00 0.000000000000e+00 0.000000000000e+00 
8.000000000000e+00 3.000000000000e+01 0.000000000000e+00 0.000000000000e+00 0.000000000000e+00 
9.000000000000e+00 3.000000000000e+01 0.000000000000e+00 0.000000000000e+00 0.000000000000e+00 
1.000000000000e+01 3.000000000000e+01 0.000000000000e+00 0.000000000000e+00 0.000000000000e+00 
1.100000000000e+01 3.000000000000e+01 0.000000000000e+00 0.000000000000e+00 0.000000000000e+00 
1.200000000000e+01 3.000000000000e+01 0.000000000000e+00 0.000000000000e+00 0.000000000000e+00 
1.300000000000e+01 3.000000000000e+01 0.000000000000e+00 0.000000000000e+00 0.000000000000e+00 
1.400000000000e+01 3.000000000000e+01 0.000000000000e+00 0.000000000000e+00 0.000000000000e+00 
1.500000000000e+01 3.000000000000e+01 0.000000000000e+00 0.000000000000e+00 0.000000000000e+00 
1.600000000000e+01 3.000000000000e+01 0.000000000000e+00 0.000000000000e+00 0.000000000000e+00 
1.700000000000e+01 3.000000000000e+01 0.000000000000e+00 0.000000000000e+00 0.000000000000e+00 
1.800000000000e+01 3.000000000000e+01 0.000000000000e+00 0.000000000000e+00 0.000000000000e+00 
1.900000000000e+01 3.000000000000e+01 0.000000000000e+00 0.000000000000e+00 0.000000000000e+00 
2.000000000000e+01 3.000000000000e+01 0.000000000000e+00 0.000000000000e+00 0.000000000000e+00 
2.100000000000e+01 3.000000000000e+01 0.000000000000e+00 0.000000000000e+00 0.000000000000e+00 
2.200000000000e+01 3.000000000000e+01 0.000000000000e+00 0.000000000000e+00 0.000000000000e+00 
2.300000000000e+01 3.000000000000e+01 0.000000000000e+00 0.000000000000e+00 0.000000000000e+00 
2.400000000000e+01 3.000000000000e+01 0.000000000000e+00 0.000000000000e+00 0.000000000000e+00 
2.500000000000e+01 3.000000000000e+01 0.000000000000e+00 0.000000000000e+00 0.000000000000e+00 
2.600000000000e+01 3.000000000000e+01 0.000000000000e+00 0.000000000000e+00 0.000000000000e+00 
2.700000000000e+01 3.000000000000e+01 0.000000000000e+00 0.000000000000e+00 0.000000000000e+00 
2.800000000000e+01 3.000000000000e+01 0.000000000000e+00 0.000000000000e+00 0.000000000000e+00 
2.900000000000e+01 3.000000000000e+01 0.000000000000e+00 0.000000000000e+00 0.000000000000e+00 
3.000000000000e+01 3.000000000000e+01 0.000000000000e+00 0.000000000000e+00 0.000000000000e+00 
 TITLE = "Profiles along polylines"
 VARIABLES = "DIST" "HEAD" "VELOCITY_X1" "VELOCITY_Y1" "VELOCITY_Z1" 
 ZONE T="TIME=1.797693134862e+308"
0.000000000000e+00 3.000000000000e+01 3.307362990863e-09 2.639668610891e-21 0.000000000000e+00 
1.000000000000e+00 3.000000000000e+01 3.171192837086e-08 4.216224733446e-20 0.000000000000e+00 
2.000000000000e+00 3.000000000000e+01 3.266125087715e-07 3.229505241447e-19 0.000000000000e+00 
3.000000000000e+00 3.000000000000e+01 2.969791966729e-07 1.142664172903e-19 0.000000000000e+00 
4.000000000000e+00 3.000000000000e+01 2.464321015993e-08 -1.705842527594e-21 0.000000000000e+00 
5.000000000000e+00 3.000000000000e+01 3.590164806111e-08 -3.892280285365e-20 0.000000000000e+00 
6.000000000000e+00 3.000000000000e+01 1.322404623056e-08 2.318588045847e-20 0.000000000000e+00 
7.000000000000e+00 3.000000000000e+01 2.355891427450e-09 1.796820240206e-21 0.000000000000e+00 
8.000000000000e+00 3.000000000000e+01 1.346464749471e-08 -6.496755795735e-21 0.000000000000e+00 
9.000000000000e+00 3.000000000000e+01 1.859598384645e-08 -1.261013710649e-20 0.000000000000e+00 
1.000000000000e+01 3.000000000000e+01 8.060910596470e-09 -2.003815612553e-21 0.000000000000e+00 
1.100000000000e+01 3.000000000000e+01 1.730300590172e-07 -2.767303238423e-19 0.000000000000e+00 
1.200000000000e+01 3.000000000000e+01 7.060031317212e-07 1.040442479341e-19 0.000000000000e+00 
1.300000000000e+01 3.000000000000e+01 5.429864462258e-07 4.176101319281e-20 0.000000000000e+00 
1.400000000000e+01 3.000000000000e+01 2.677284169635e-07 -7.093705080170e-19 0.000000000000e+00 
1.500000000000e+01 3.000000000000e+01 9.835185016237e-07 -1.363655945505e-18 0.000000000000e+00 
1.600000000000e+01 3.000000000000e+01 7.327960337181e-07 1.595972604328e-18 0.000000000000e+00 
1.700000000000e+01 3.000000000000e+01 3.339033939552e-08 -5.128692362730e-21 0.000000000000e+00 
1.800000000000e+01 3.000000000000e+01 3.824252750480e-08 1.054156266529e-20 0.000000000000e+00 
1.900000000000e+01 3.000000000000e+01 4.684676049414e-08 -4.223215490322e-20 0.000000000000e+00 
2.000000000000e+01 3.000000000000e+01 3.890769676219e-08 -3.096030292964e-20 0.000000000000e+00 
2.100000000000e+01 3.000000000000e+01 5.444234032664e-08 6.205954766545e-20 0.000000000000e+00 
2.200000000000e+01 3.000000000000e+01 4.918278869676e-08 5.043323234059e-20 0.000000000000e+00 
2.300000000000e+01 3.000000000000e+01 4.540586890837e-07 -6.741160215900e-19 0.000000000000e+00 
2.400000000000e+01 3.000000000000e+01 5.374496371885e-07 -5.899360787471e-19 0.000000000000e+00 
2.500000000000e+01 3.000000000000e+01 9.281818353067e-08 4.545252331646e-20 0.000000000000e+00 
2.600000000000e+01 3.000000000000e+01 8.832920549115e-09 5.516488103852e-21 0.000000000000e+00 
2.700000000000e+01 3.000000000000e+01 8.411668399343e-08 -7.803307990245e-20 0.000000000000e+00 
2.800000000000e+01 3.000000000000e+01 1.106508426905e-07 7.084894034983e-20 0.000000000000e+00 
2.900000000000e+01 3.000000000000e+01 3.181686227198e-08 -1.011603115061e-20 0.000000000000e+00 
3.000000000000e+01 3.000000000000e+01 1.340926116504e-08 -4.713481925480e-21 0.000000000000e+00 
