 TITLE = "Profiles along polylines"
 VARIABLES = "DIST" "HEAD" "VELOCITY_X1" "VELOCITY_Y1" "VELOCITY_Z1" 
 ZONE T="TIME=0.000000000000e+00"
0.000000000000e+00 3.000000000000e+01 0.000000000000e+00 0.000000000000e+00 0.000000000000e+00 
1.000000000000e+00 3.000000000000e+01 0.000000000000e+00 0.000000000000e+00 0.000000000000e+00 
2.000000000000e+00 3.000000000000e+01 0.000000000000e+00 0.000000000000e+00 0.000000000000e+00 
3.000000000000e+00 3.000000000000e+01 0.000000000000e+00 0.000000000000e+00 0.000000000000e+00 
4.000000000000e+00 3.000000000000e+01 0.000000000000e+00 0.000000000000e+00 0.000000000000e+00 
5.000000000000e+00 3.000000000000e+01 0.000000000000e+00 0.000000000000e+00 0.000000000000e+00 
6.000000000000e+00 3.000000000000e+01 0.000000000000e+00 0.000000000000e+00 0.000000000000e+00 
7.000000000000e+00 3.000000000000e+01 0.000000000000e+00 0.000000000000e+00 0.000000000000e+00 
8.000000000000e+00 3.000000000000e+01 0.000000000000e+00 0.000000000000e+00 0.000000000000e+00 
9.000000000000e+00 3.000000000000e+01 0.000000000000e+00 0.000000000000e+00 0.000000000000e+00 
1.000000000000e+01 3.000000000000e+01 0.000000000000e+00 0.000000000000e+00 0.000000000000e+00 
1.100000000000e+01 3.000000000000e+01 0.000000000000e+00 0.000000000000e+00 0.000000000000e+00 
1.200000000000e+01 3.000000000000e+01 0.000000000000e+00 0.000000000000e+00 0.000000000000e+00 
1.300000000000e+01 3.000000000000e+01 0.000000000000e+00 0.000000000000e+00 0.000000000000e+00 
1.400000000000e+01 3.000000000000e+01 0.000000000000e+00 0.000000000000e+00 0.000000000000e+00 
1.500000000000e+01 3.000000000000e+01 0.000000000000e+00 0.000000000000e+00 0.000000000000e+00 
1.600000000000e+01 3.000000000000e+01 0.000000000000e+00 0.000000000000e+00 0.000000000000e+00 
1.700000000000e+01 3.000000000000e+01 0.000000000000e+00 0.000000000000e+00 0.000000000000e+00 
1.800000000000e+01 3.000000000000e+01 0.000000000000e+00 0.000000000000e+00 0.000000000000e+00 
1.900000000000e+01 3.000000000000e+01 0.000000000000e+00 0.000000000000e+00 0.000000000000e+00 
2.000000000000e+01 3.000000000000e+01 0.000000000000e+00 0.000000000000e+00 0.000000000000e+00 
2.100000000000e+01 3.000000000000e+01 0.000000000000e+00 0.000000000000e+00 0.000000000000e+00 
2.200000000000e+01 3.000000000000e+01 0.000000000000e+00 0.000000000000e+00 0.000000000000e+00 
2.300000000000e+01 3.000000000000e+01 0.000000000000e+00 0.000000000000e+00 0.000000000000e+00 
2.400000000000e+01 3.000000000000e+01 0.000000000000e+00 0.000000000000e+00 0.000000000000e+00 
2.500000000000e+01 3.000000000000e+01 0.000000000000e+00 0.000000000000e+00 0.000000000000e+00 
2.600000000000e+01 3.000000000000e+01 0.000000000000e+00 0.000000000000e+00 0.000000000000e+00 
2.700000000000e+01 3.000000000000e+01 0.000000000000e+00 0.000000000000e+00 0.000000000000e+00 
2.800000000000e+01 3.000000000000e+01 0.000000000000e+00 0.000000000000e+00 0.000000000000e+00 
2.900000000000e+01 3.000000000000e+01 0.000000000000e+00 0.000000000000e+00 0.000000000000e+00 
3.000000000000e+01 3.000000000000e+01 0.000000000000e+00 0.000000000000e+00 0.000000000000e+00 
 TITLE = "Profiles along polylines"
 VARIABLES = "DIST" "HEAD" "VELOCITY_X1" "VELOCITY_Y1" "VELOCITY_Z1" 
 ZONE T="TIME=1.797693134862e+308"
0.000000000000e+00 3.041126563944e+01 1.757429603795e-09 -1.757742824863e-12 0.000000000000e+00 
1.000000000000e+00 3.041126619228e+01 1.685062374062e-08 -1.861111264569e-11 0.000000000000e+00 
2.000000000000e+00 3.041126680594e+01 1.735493913039e-07 -2.090402009178e-10 0.000000000000e+00 
3.000000000000e+00 3.041126747700e+01 1.578021716816e-07 -5.404112658441e-10 0.000000000000e+00 
4.000000000000e+00 3.041212627493e+01 1.296705551789e-08 -7.111757752204e-10 0.000000000000e+00 
5.000000000000e+00 3.041214198096e+01 1.888776647794e-08 -7.430328500690e-10 0.000000000000e+00 
6.000000000000e+00 3.041217624597e+01 6.954384876763e-09 -7.688753554488e-10 0.000000000000e+00 
7.000000000000e+00 3.041244128999e+01 1.235142610183e-09 -7.770652541963e-10 0.000000000000e+00 
8.000000000000e+00 3.041294602953e+01 7.018236597406e-09 -7.853199279500e-10 0.000000000000e+00 
9.000000000000e+00 3.041297924806e+01 9.689132732770e-09 -8.020286500912e-10 0.000000000000e+00 
1.000000000000e+01 3.041305168295e+01 4.196442112596e-09 -8.159148248172e-10 0.000000000000e+00 
1.100000000000e+01 3.041325784740e+01 8.985995132055e-08 -9.099891394895e-10 0.000000000000e+00 
1.200000000000e+01 3.041326096064e+01 3.666349463508e-07 -1.366543826779e-09 0.000000000000e+00 
1.300000000000e+01 3.041326268448e+01 2.819713291011e-07 -2.015185346385e-09 0.000000000000e+00 
1.400000000000e+01 3.041341764489e+01 1.386910995755e-07 -2.435866488840e-09 0.000000000000e+00 
1.500000000000e+01 3.041342293143e+01 5.094475823298e-07 -3.084083219834e-09 0.000000000000e+00 
1.600000000000e+01 3.041342558090e+01 3.795598745956e-07 -3.973139227450e-09 0.000000000000e+00 
1.700000000000e+01 3.041368117859e+01 1.721718783997e-08 -4.369915304613e-09 0.000000000000e+00 
1.800000000000e+01 3.041377809324e+01 1.968550548604e-08 -4.406822311555e-09 0.000000000000e+00 
1.900000000000e+01 3.041394860152e+01 2.404212927398e-08 -4.450554792615e-09 0.000000000000e+00 
2.000000000000e+01 3.041402191747e+01 1.994180795081e-08 -4.494542908309e-09 0.000000000000e+00 
2.100000000000e+01 3.041442773782e+01 2.770360546015e-08 -4.542193695765e-09 0.000000000000e+00 
2.200000000000e+01 3.041447901791e+01 2.500422934987e-08 -4.594905269117e-09 0.000000000000e+00 
2.300000000000e+01 3.041788325828e+01 2.174147212217e-07 -4.837360383158e-09 0.000000000000e+00 
2.400000000000e+01 3.041788969489e+01 2.573022556202e-07 -5.312114951004e-09 0.000000000000e+00 
2.500000000000e+01 3.041792792447e+01 4.437906750675e-08 -5.613797748033e-09 0.000000000000e+00 
2.600000000000e+01 3.041830780166e+01 4.167366214483e-09 -5.662345533558e-09 0.000000000000e+00 
2.700000000000e+01 3.044907702774e+01 1.902028494278e-08 -5.685536955114e-09 0.000000000000e+00 
2.800000000000e+01 3.044916013913e+01 2.484185106013e-08 -5.729402440777e-09 0.000000000000e+00 
2.900000000000e+01 3.044943094601e+01 6.777474149067e-09 -5.761022219787e-09 0.000000000000e+00 
3.000000000000e+01 3.045119230479e+01 1.810022703130e-09 -5.767800048517e-09 0.000000000000e+00 
