VARIABLES = X,Y,Z,PERMEABILITY
ZONE T = DEFAULT, N = 31031, E = 30000, F = FEPOINT, ET = QUADRILATERAL
0.000000000000e+00 0.000000000000e+00 0.000000000000e+00 9.614215543485e-05
1.000000000000e+00 0.000000000000e+00 0.000000000000e+00 9.415463447251e-05
2.000000000000e+00 0.000000000000e+00 0.000000000000e+00 9.026485177944e-05
3.000000000000e+00 0.000000000000e+00 0.000000000000e+00 8.654183179553e-05
4.000000000000e+00 0.000000000000e+00 0.000000000000e+00 8.297823171012e-05
5.000000000000e+00 0.000000000000e+00 0.000000000000e+00 7.956703842368e-05
6.000000000000e+00 0.000000000000e+00 0.000000000000e+00 7.630155353397e-05
7.000000000000e+00 0.000000000000e+00 0.000000000000e+00 7.317537901214e-05
8.000000000000e+00 0.000000000000e+00 0.000000000000e+00 7.018240353706e-05
9.000000000000e+00 0.000000000000e+00 0.000000000000e+00 6.731678945738e-05
1.000000000000e+01 0.000000000000e+00 0.000000000000e+00 6.457296035245e-05
1.100000000000e+01 0.000000000000e+00 0.000000000000e+00 6.194558916430e-05
1.200000000000e+01 0.000000000000e+00 0.000000000000e+00 5.942958687440e-05
1.300000000000e+01 0.000000000000e+00 0.000000000000e+00 5.702009170010e-05
1.400000000000e+01 0.000000000000e+00 0.000000000000e+00 5.471245878652e-05
1.500000000000e+01 0.000000000000e+00 0.000000000000e+00 5.250225037138e-05
1.600000000000e+01 0.000000000000e+00 0.000000000000e+00 5.038522640053e-05
1.700000000000e+01 0.000000000000e+00 0.000000000000e+00 4.835733557377e-05
1.800000000000e+01 0.000000000000e+00 0.000000000000e+00 4.641470680075e-05
1.900000000000e+01 0.000000000000e+00 0.000000000000e+00 4.455364104834e-05
2.000000000000e+01 0.000000000000e+00 0.000000000000e+00 4.277060356115e-05
2.100000000000e+01 0.000000000000e+00 0.000000000000e+00 4.106221643815e-05
2.200000000000e+01 0.000000000000e+00 0.000000000000e+00 3.942525154886e-05
2.300000000000e+01 0.000000000000e+00 0.000000000000e+00 3.785662377362e-05
2.400000000000e+01 0.000000000000e+00 0.000000000000e+00 3.635338455270e-05
2.500000000000e+01 0.000000000000e+00 0.000000000000e+00 3.491271573037e-05
2.600000000000e+01 0.000000000000e+00 0.000000000000e+00 3.353192368004e-05
2.700000000000e+01 0.000000000000e+00 0.000000000000e+00 3.220843369767e-05
2.800000000000e+01 0.000000000000e+00 0.000000000000e+00 3.093978465112e-05
2.900000000000e+01 0.000000000000e+00 0.000000000000e+00 2.972362387344e-05
3.000000000000e+01 0.000000000000e+00 0.000000000000e+00 2.855770228919e-05
3.100000000000e+01 0.000000000000e+00 0.000000000000e+00 2.743986976280e-05
3.200000000000e+01 0.000000000000e+00 0.000000000000e+00 2.636807065880e-05
3.300000000000e+01 0.000000000000e+00 0.000000000000e+00 2.534033960433e-05
3.400000000000e+01 0.000000000000e+00 0.000000000000e+00 2.435479744438e-05
3.500000000000e+01 0.000000000000e+00 0.000000000000e+00 2.340964738115e-05
3.600000000000e+01 0.000000000000e+00 0.000000000000e+00 2.250317128883e-05
3.700000000000e+01 0.000000000000e+00 0.000000000000e+00 2.163372619590e-05
3.800000000000e+01 0.000000000000e+00 0.000000000000e+00 2.079974092722e-05
3.900000000000e+01 0.000000000000e+00 0.000000000000e+00 1.999971289853e-05
4.000000000000e+01 0.000000000000e+00 0.000000000000e+00 1.923220505637e-05
4.100000000000e+01 0.000000000000e+00 0.000000000000e+00 1.849584295683e-05
4.200000000000e+01 0.000000000000e+00 0.000000000000e+00 1.778931197658e-05
4.300000000000e+01 0.000000000000e+00 0.000000000000e+00 1.711135465035e-05
4.400000000000e+01 0.000000000000e+00 0.000000000000e+00 1.646076812885e-05
4.500000000000e+01 0.000000000000e+00 0.000000000000e+00 1.583640175177e-05
4.600000000000e+01 0.000000000000e+00 0.000000000000e+00 1.523715473043e-05
4.700000000000e+01 0.000000000000e+00 0.000000000000e+00 1.466197393524e-05
4.800000000000e+01 0.000000000000e+00 0.000000000000e+00 1.410985178300e-05
4.900000000000e+01 0.000000000000e+00 0.000000000000e+00 1.357982421962e-05
5.000000000000e+01 0.000000000000e+00 0.000000000000e+00 1.307096879378e-05
5.100000000000e+01 0.000000000000e+00 0.000000000000e+00 1.258240281745e-05
5.200000000000e+01 0.000000000000e+00 0.000000000000e+00 1.211328160921e-05
5.300000000000e+01 0.000000000000e+00 0.000000000000e+00 1.166279681676e-05
5.400000000000e+01 0.000000000000e+00 0.000000000000e+00 1.123017481477e-05
5.500000000000e+01 0.000000000000e+00 0.000000000000e+00 1.081467517487e-05
5.600000000000e+01 0.000000000000e+00 0.000000000000e+00 1.041558920426e-05
5.700000000000e+01 0.000000000000e+00 0.000000000000e+00 1.003223855004e-05
5.800000000000e+01 0.000000000000e+00 0.000000000000e+00 9.663973866065e-06
5.900000000000e+01 0.000000000000e+00 0.000000000000e+00 9.310173539638e-06
6.000000000000e+01 0.000000000000e+00 0.000000000000e+00 8.970242475176e-06
6.100000000000e+01 0.000000000000e+00 0.000000000000e+00 8.643610932376e-06
6.200000000000e+01 0.000000000000e+00 0.000000000000e+00 8.329733416332e-06
6.300000000000e+01 0.000000000000e+00 0.000000000000e+00 8.028087617272e-06
6.400000000000e+01 0.000000000000e+00 0.000000000000e+00 7.738173397645e-06
6.500000000000e+01 0.000000000000e+00 0.000000000000e+00 7.459511824420e-06
6.600000000000e+01 0.000000000000e+00 0.000000000000e+00 7.191644244541e-06
6.700000000000e+01 0.000000000000e+00 0.000000000000e+00 6.934131401584e-06
6.800000000000e+01 0.000000000000e+00 0.000000000000e+00 6.686552591744e-06
6.900000000000e+01 0.000000000000e+00 0.000000000000e+00 6.448504857374e-06
7.000000000000e+01 0.000000000000e+00 0.000000000000e+00 6.219602216380e-06
7.100000000000e+01 0.000000000000e+00 0.000000000000e+00 5.999474925842e-06
7.200000000000e+01 0.000000000000e+00 0.000000000000e+00 5.787768778318e-06
7.300000000000e+01 0.000000000000e+00 0.000000000000e+00 5.584144429360e-06
7.400000000000e+01 0.000000000000e+00 0.000000000000e+00 5.388276754816e-06
7.500000000000e+01 0.000000000000e+00 0.000000000000e+00 5.199854236600e-06
7.600000000000e+01 0.000000000000e+00 0.000000000000e+00 5.018578375619e-06
7.700000000000e+01 0.000000000000e+00 0.000000000000e+00 4.844163130651e-06
7.800000000000e+01 0.000000000000e+00 0.000000000000e+00 4.676334382003e-06
7.900000000000e+01 0.000000000000e+00 0.000000000000e+00 4.514829418824e-06
8.000000000000e+01 0.000000000000e+00 0.000000000000e+00 4.359396449027e-06
8.100000000000e+01 0.000000000000e+00 0.000000000000e+00 4.209794130780e-06
8.200000000000e+01 0.000000000000e+00 0.000000000000e+00 4.065791124625e-06
8.300000000000e+01 0.000000000000e+00 0.000000000000e+00 3.927165665273e-06
8.400000000000e+01 0.000000000000e+00 0.000000000000e+00 3.793705152214e-06
8.500000000000e+01 0.000000000000e+00 0.000000000000e+00 3.665205758283e-06
8.600000000000e+01 0.000000000000e+00 0.000000000000e+00 3.541472055390e-06
8.700000000000e+01 0.000000000000e+00 0.000000000000e+00 3.422316656638e-06
8.800000000000e+01 0.000000000000e+00 0.000000000000e+00 3.307559874101e-06
8.900000000000e+01 0.000000000000e+00 0.000000000000e+00 3.197029391555e-06
9.000000000000e+01 0.000000000000e+00 0.000000000000e+00 3.090559951508e-06
9.100000000000e+01 0.000000000000e+00 0.000000000000e+00 2.987993055880e-06
9.200000000000e+01 0.000000000000e+00 0.000000000000e+00 2.889176679722e-06
9.300000000000e+01 0.000000000000e+00 0.000000000000e+00 2.793964997407e-06
9.400000000000e+01 0.000000000000e+00 0.000000000000e+00 2.702218120728e-06
9.500000000000e+01 0.000000000000e+00 0.000000000000e+00 2.613801848370e-06
9.600000000000e+01 0.000000000000e+00 0.000000000000e+00 2.528587426266e-06
9.700000000000e+01 0.000000000000e+00 0.000000000000e+00 2.446451318333e-06
9.800000000000e+01 0.000000000000e+00 0.000000000000e+00 2.367274987146e-06
9.900000000000e+01 0.000000000000e+00 0.000000000000e+00 2.290944684101e-06
1.000000000000e+02 0.000000000000e+00 0.000000000000e+00 2.217351248646e-06
1.010000000000e+02 0.000000000000e+00 0.000000000000e+00 2.146389916182e-06
1.020000000000e+02 0.000000000000e+00 0.000000000000e+00 2.077960134249e-06
1.030000000000e+02 0.000000000000e+00 0.000000000000e+00 2.011965386632e-06
1.040000000000e+02 0.000000000000e+00 0.000000000000e+00 1.948313025037e-06
1.050000000000e+02 0.000000000000e+00 0.000000000000e+00 1.886914108003e-06
1.060000000000e+02 0.000000000000e+00 0.000000000000e+00 1.827683246733e-06
1.070000000000e+02 0.000000000000e+00 0.000000000000e+00 1.770538457535e-06
1.080000000000e+02 0.000000000000e+00 0.000000000000e+00 1.715401020590e-06
1.090000000000e+02 0.000000000000e+00 0.000000000000e+00 1.662195344759e-06
1.100000000000e+02 0.000000000000e+00 0.000000000000e+00 1.610848838175e-06
1.110000000000e+02 0.000000000000e+00 0.000000000000e+00 1.561291784358e-06
1.120000000000e+02 0.000000000000e+00 0.000000000000e+00 1.513457223614e-06
1.130000000000e+02 0.000000000000e+00 0.000000000000e+00 1.467280839486e-06
1.140000000000e+02 0.000000000000e+00 0.000000000000e+00 1.422700850038e-06
1.150000000000e+02 0.000000000000e+00 0.000000000000e+00 1.379657903762e-06
1.160000000000e+02 0.000000000000e+00 0.000000000000e+00 1.338094979896e-06
1.170000000000e+02 0.000000000000e+00 0.000000000000e+00 1.297957292980e-06
1.180000000000e+02 0.000000000000e+00 0.000000000000e+00 1.259192201443e-06
1.190000000000e+02 0.000000000000e+00 0.000000000000e+00 1.221749120065e-06
1.200000000000e+02 0.000000000000e+00 0.000000000000e+00 1.185579436132e-06
1.210000000000e+02 0.000000000000e+00 0.000000000000e+00 1.150636429132e-06
1.220000000000e+02 0.000000000000e+00 0.000000000000e+00 1.116875193833e-06
1.230000000000e+02 0.000000000000e+00 0.000000000000e+00 1.084252566599e-06
1.240000000000e+02 0.000000000000e+00 0.000000000000e+00 1.052727054809e-06
1.250000000000e+02 0.000000000000e+00 0.000000000000e+00 1.022258769230e-06
1.260000000000e+02 0.000000000000e+00 0.000000000000e+00 9.928093592307e-07
1.270000000000e+02 0.000000000000e+00 0.000000000000e+00 9.643419507126e-07
1.280000000000e+02 0.000000000000e+00 0.000000000000e+00 9.368210866289e-07
1.290000000000e+02 0.000000000000e+00 0.000000000000e+00 9.102126699936e-07
1.300000000000e+02 0.000000000000e+00 0.000000000000e+00 8.844839092667e-07
1.310000000000e+02 0.000000000000e+00 0.000000000000e+00 8.596032660145e-07
1.320000000000e+02 0.000000000000e+00 0.000000000000e+00 8.355404047481e-07
1.330000000000e+02 0.000000000000e+00 0.000000000000e+00 8.122661448461e-07
1.340000000000e+02 0.000000000000e+00 0.000000000000e+00 7.897524144727e-07
1.350000000000e+02 0.000000000000e+00 0.000000000000e+00 7.679722064056e-07
1.360000000000e+02 0.000000000000e+00 0.000000000000e+00 7.468995356915e-07
1.370000000000e+02 0.000000000000e+00 0.000000000000e+00 7.265093990530e-07
1.380000000000e+02 0.000000000000e+00 0.000000000000e+00 7.067777359695e-07
1.390000000000e+02 0.000000000000e+00 0.000000000000e+00 6.876813913639e-07
1.400000000000e+02 0.000000000000e+00 0.000000000000e+00 6.691980798243e-07
1.410000000000e+02 0.000000000000e+00 0.000000000000e+00 6.513063512963e-07
1.420000000000e+02 0.000000000000e+00 0.000000000000e+00 6.339855581845e-07
1.430000000000e+02 0.000000000000e+00 0.000000000000e+00 6.172158238018e-07
1.440000000000e+02 0.000000000000e+00 0.000000000000e+00 6.009780121108e-07
1.450000000000e+02 0.000000000000e+00 0.000000000000e+00 5.852536987014e-07
1.460000000000e+02 0.000000000000e+00 0.000000000000e+00 5.700251429541e-07
1.470000000000e+02 0.000000000000e+00 0.000000000000e+00 5.552752613369e-07
1.480000000000e+02 0.000000000000e+00 0.000000000000e+00 5.409876017902e-07
1.490000000000e+02 0.000000000000e+00 0.000000000000e+00 5.271463191516e-07
1.500000000000e+02 0.000000000000e+00 0.000000000000e+00 5.137361515795e-07
1.510000000000e+02 0.000000000000e+00 0.000000000000e+00 5.007423979310e-07
1.520000000000e+02 0.000000000000e+00 0.000000000000e+00 4.881508960563e-07
1.530000000000e+02 0.000000000000e+00 0.000000000000e+00 4.759480019690e-07
1.540000000000e+02 0.000000000000e+00 0.000000000000e+00 4.641205698584e-07
1.550000000000e+02 0.000000000000e+00 0.000000000000e+00 4.526559329058e-07
1.560000000000e+02 0.000000000000e+00 0.000000000000e+00 4.415418848733e-07
1.570000000000e+02 0.000000000000e+00 0.000000000000e+00 4.307666624321e-07
1.580000000000e+02 0.000000000000e+00 0.000000000000e+00 4.203189281991e-07
1.590000000000e+02 0.000000000000e+00 0.000000000000e+00 4.101877544539e-07
1.600000000000e+02 0.000000000000e+00 0.000000000000e+00 4.003626075061e-07
1.610000000000e+02 0.000000000000e+00 0.000000000000e+00 3.908333326870e-07
1.620000000000e+02 0.000000000000e+00 0.000000000000e+00 3.815901399398e-07
1.630000000000e+02 0.000000000000e+00 0.000000000000e+00 3.726235899835e-07
1.640000000000e+02 0.000000000000e+00 0.000000000000e+00 3.639245810267e-07
1.650000000000e+02 0.000000000000e+00 0.000000000000e+00 3.554843360080e-07
1.660000000000e+02 0.000000000000e+00 0.000000000000e+00 3.472943903433e-07
1.670000000000e+02 0.000000000000e+00 0.000000000000e+00 3.393465801568e-07
1.680000000000e+02 0.000000000000e+00 0.000000000000e+00 3.316330309769e-07
1.690000000000e+02 0.000000000000e+00 0.000000000000e+00 3.241461468789e-07
1.700000000000e+02 0.000000000000e+00 0.000000000000e+00 3.168786000537e-07
1.710000000000e+02 0.000000000000e+00 0.000000000000e+00 3.098233207883e-07
1.720000000000e+02 0.000000000000e+00 0.000000000000e+00 3.029734878383e-07
1.730000000000e+02 0.000000000000e+00 0.000000000000e+00 2.963225191781e-07
1.740000000000e+02 0.000000000000e+00 0.000000000000e+00 2.898640631134e-07
1.750000000000e+02 0.000000000000e+00 0.000000000000e+00 2.835919897404e-07
1.760000000000e+02 0.000000000000e+00 0.000000000000e+00 2.775003827382e-07
1.770000000000e+02 0.000000000000e+00 0.000000000000e+00 2.715835314815e-07
1.780000000000e+02 0.000000000000e+00 0.000000000000e+00 2.658359234585e-07
1.790000000000e+02 0.000000000000e+00 0.000000000000e+00 2.602522369848e-07
1.800000000000e+02 0.000000000000e+00 0.000000000000e+00 2.548273341983e-07
1.810000000000e+02 0.000000000000e+00 0.000000000000e+00 2.495562543262e-07
1.820000000000e+02 0.000000000000e+00 0.000000000000e+00 2.444342072109e-07
1.830000000000e+02 0.000000000000e+00 0.000000000000e+00 2.394565670867e-07
1.840000000000e+02 0.000000000000e+00 0.000000000000e+00 2.346188665956e-07
1.850000000000e+02 0.000000000000e+00 0.000000000000e+00 2.299167910328e-07
1.860000000000e+02 0.000000000000e+00 0.000000000000e+00 2.253461728139e-07
1.870000000000e+02 0.000000000000e+00 0.000000000000e+00 2.209029861533e-07
1.880000000000e+02 0.000000000000e+00 0.000000000000e+00 2.165833419463e-07
1.890000000000e+02 0.000000000000e+00 0.000000000000e+00 2.123834828470e-07
1.900000000000e+02 0.000000000000e+00 0.000000000000e+00 2.082997785338e-07
1.910000000000e+02 0.000000000000e+00 0.000000000000e+00 2.043287211544e-07
1.920000000000e+02 0.000000000000e+00 0.000000000000e+00 2.004669209448e-07
1.930000000000e+02 0.000000000000e+00 0.000000000000e+00 1.967111020142e-07
1.940000000000e+02 0.000000000000e+00 0.000000000000e+00 1.930580982891e-07
1.950000000000e+02 0.000000000000e+00 0.000000000000e+00 1.895048496118e-07
1.960000000000e+02 0.000000000000e+00 0.000000000000e+00 1.860483979848e-07
1.970000000000e+02 0.000000000000e+00 0.000000000000e+00 1.826858839579e-07
1.980000000000e+02 0.000000000000e+00 0.000000000000e+00 1.794145431509e-07
1.990000000000e+02 0.000000000000e+00 0.000000000000e+00 1.762317029066e-07
2.000000000000e+02 0.000000000000e+00 0.000000000000e+00 1.731347790699e-07
2.010000000000e+02 0.000000000000e+00 0.000000000000e+00 1.701212728869e-07
2.020000000000e+02 0.000000000000e+00 0.000000000000e+00 1.671887680204e-07
2.030000000000e+02 0.000000000000e+00 0.000000000000e+00 1.643349276768e-07
2.040000000000e+02 0.000000000000e+00 0.000000000000e+00 1.615574918395e-07
2.050000000000e+02 0.000000000000e+00 0.000000000000e+00 1.588542746061e-07
2.060000000000e+02 0.000000000000e+00 0.000000000000e+00 1.562231616235e-07
2.070000000000e+02 0.000000000000e+00 0.000000000000e+00 1.536621076192e-07
2.080000000000e+02 0.000000000000e+00 0.000000000000e+00 1.511691340233e-07
2.090000000000e+02 0.000000000000e+00 0.000000000000e+00 1.487423266784e-07
2.100000000000e+02 0.000000000000e+00 0.000000000000e+00 1.463798336345e-07
2.110000000000e+02 0.000000000000e+00 0.000000000000e+00 1.440798630251e-07
2.120000000000e+02 0.000000000000e+00 0.000000000000e+00 1.418406810208e-07
2.130000000000e+02 0.000000000000e+00 0.000000000000e+00 1.396606098590e-07
2.140000000000e+02 0.000000000000e+00 0.000000000000e+00 1.375380259454e-07
2.150000000000e+02 0.000000000000e+00 0.000000000000e+00 1.354713580253e-07
2.160000000000e+02 0.000000000000e+00 0.000000000000e+00 1.334590854212e-07
2.170000000000e+02 0.000000000000e+00 0.000000000000e+00 1.314997363362e-07
2.180000000000e+02 0.000000000000e+00 0.000000000000e+00 1.295918862175e-07
2.190000000000e+02 0.000000000000e+00 0.000000000000e+00 1.277341561808e-07
2.200000000000e+02 0.000000000000e+00 0.000000000000e+00 1.259252114918e-07
2.210000000000e+02 0.000000000000e+00 0.000000000000e+00 1.241637601026e-07
2.220000000000e+02 0.000000000000e+00 0.000000000000e+00 1.224485512412e-07
2.230000000000e+02 0.000000000000e+00 0.000000000000e+00 1.207783740528e-07
2.240000000000e+02 0.000000000000e+00 0.000000000000e+00 1.191520562894e-07
2.250000000000e+02 0.000000000000e+00 0.000000000000e+00 1.175684630475e-07
2.260000000000e+02 0.000000000000e+00 0.000000000000e+00 1.160264955508e-07
2.270000000000e+02 0.000000000000e+00 0.000000000000e+00 1.145250899778e-07
2.280000000000e+02 0.000000000000e+00 0.000000000000e+00 1.130632163303e-07
2.290000000000e+02 0.000000000000e+00 0.000000000000e+00 1.116398773440e-07
2.300000000000e+02 0.000000000000e+00 0.000000000000e+00 1.102541074375e-07
2.310000000000e+02 0.000000000000e+00 0.000000000000e+00 1.089049716995e-07
2.320000000000e+02 0.000000000000e+00 0.000000000000e+00 1.075915649120e-07
2.330000000000e+02 0.000000000000e+00 0.000000000000e+00 1.063130106092e-07
2.340000000000e+02 0.000000000000e+00 0.000000000000e+00 1.050684601694e-07
2.350000000000e+02 0.000000000000e+00 0.000000000000e+00 1.038570919404e-07
2.360000000000e+02 0.000000000000e+00 0.000000000000e+00 1.026781103953e-07
2.370000000000e+02 0.000000000000e+00 0.000000000000e+00 1.015307453194e-07
2.380000000000e+02 0.000000000000e+00 0.000000000000e+00 1.004142510258e-07
2.390000000000e+02 0.000000000000e+00 0.000000000000e+00 9.932790559933e-08
2.400000000000e+02 0.000000000000e+00 0.000000000000e+00 9.827101016727e-08
2.410000000000e+02 0.000000000000e+00 0.000000000000e+00 9.724288819668e-08
2.420000000000e+02 0.000000000000e+00 0.000000000000e+00 9.624288481658e-08
2.430000000000e+02 0.000000000000e+00 0.000000000000e+00 9.527036616464e-08
2.440000000000e+02 0.000000000000e+00 0.000000000000e+00 9.432471875723e-08
2.450000000000e+02 0.000000000000e+00 0.000000000000e+00 9.340534888218e-08
2.460000000000e+02 0.000000000000e+00 0.000000000000e+00 9.251168201337e-08
2.470000000000e+02 0.000000000000e+00 0.000000000000e+00 9.164316224633e-08
2.480000000000e+02 0.000000000000e+00 0.000000000000e+00 9.079925175434e-08
2.490000000000e+02 0.000000000000e+00 0.000000000000e+00 8.997943026403e-08
2.500000000000e+02 0.000000000000e+00 0.000000000000e+00 8.918319455007e-08
2.510000000000e+02 0.000000000000e+00 0.000000000000e+00 8.841005794807e-08
2.520000000000e+02 0.000000000000e+00 0.000000000000e+00 8.765954988531e-08
2.530000000000e+02 0.000000000000e+00 0.000000000000e+00 8.693121542847e-08
2.540000000000e+02 0.000000000000e+00 0.000000000000e+00 8.622461484792e-08
2.550000000000e+02 0.000000000000e+00 0.000000000000e+00 8.553932319797e-08
2.560000000000e+02 0.000000000000e+00 0.000000000000e+00 8.487492991262e-08
2.570000000000e+02 0.000000000000e+00 0.000000000000e+00 8.423103841612e-08
2.580000000000e+02 0.000000000000e+00 0.000000000000e+00 8.360726574810e-08
2.590000000000e+02 0.000000000000e+00 0.000000000000e+00 8.300324220258e-08
2.600000000000e+02 0.000000000000e+00 0.000000000000e+00 8.241861098050e-08
2.610000000000e+02 0.000000000000e+00 0.000000000000e+00 8.185302785540e-08
2.620000000000e+02 0.000000000000e+00 0.000000000000e+00 8.130616085171e-08
2.630000000000e+02 0.000000000000e+00 0.000000000000e+00 8.077768993528e-08
2.640000000000e+02 0.000000000000e+00 0.000000000000e+00 8.026730671584e-08
2.650000000000e+02 0.000000000000e+00 0.000000000000e+00 7.977471416097e-08
2.660000000000e+02 0.000000000000e+00 0.000000000000e+00 7.929962632120e-08
2.670000000000e+02 0.000000000000e+00 0.000000000000e+00 7.884176806595e-08
2.680000000000e+02 0.000000000000e+00 0.000000000000e+00 7.840087482993e-08
2.690000000000e+02 0.000000000000e+00 0.000000000000e+00 7.797669236978e-08
2.700000000000e+02 0.000000000000e+00 0.000000000000e+00 7.756897653053e-08
2.710000000000e+02 0.000000000000e+00 0.000000000000e+00 7.717749302171e-08
2.720000000000e+02 0.000000000000e+00 0.000000000000e+00 7.680201720276e-08
2.730000000000e+02 0.000000000000e+00 0.000000000000e+00 7.644233387745e-08
2.740000000000e+02 0.000000000000e+00 0.000000000000e+00 7.609823709723e-08
2.750000000000e+02 0.000000000000e+00 0.000000000000e+00 7.576952997302e-08
2.760000000000e+02 0.000000000000e+00 0.000000000000e+00 7.545602449541e-08
2.770000000000e+02 0.000000000000e+00 0.000000000000e+00 7.515754136298e-08
2.780000000000e+02 0.000000000000e+00 0.000000000000e+00 7.487390981846e-08
2.790000000000e+02 0.000000000000e+00 0.000000000000e+00 7.460496749271e-08
2.800000000000e+02 0.000000000000e+00 0.000000000000e+00 7.435056025611e-08
2.810000000000e+02 0.000000000000e+00 0.000000000000e+00 7.411054207736e-08
2.820000000000e+02 0.000000000000e+00 0.000000000000e+00 7.388477488939e-08
2.830000000000e+02 0.000000000000e+00 0.000000000000e+00 7.367312846233e-08
2.840000000000e+02 0.000000000000e+00 0.000000000000e+00 7.347548028323e-08
2.850000000000e+02 0.000000000000e+00 0.000000000000e+00 7.329171544259e-08
2.860000000000e+02 0.000000000000e+00 0.000000000000e+00 7.312172652732e-08
2.870000000000e+02 0.000000000000e+00 0.000000000000e+00 7.296541352021e-08
2.880000000000e+02 0.000000000000e+00 0.000000000000e+00 7.282268370564e-08
2.890000000000e+02 0.000000000000e+00 0.000000000000e+00 7.269345158150e-08
2.900000000000e+02 0.000000000000e+00 0.000000000000e+00 7.257763877714e-08
2.910000000000e+02 0.000000000000e+00 0.000000000000e+00 7.247517397727e-08
2.920000000000e+02 0.000000000000e+00 0.000000000000e+00 7.238599285178e-08
2.930000000000e+02 0.000000000000e+00 0.000000000000e+00 7.231003799125e-08
2.940000000000e+02 0.000000000000e+00 0.000000000000e+00 7.224725884816e-08
2.950000000000e+02 0.000000000000e+00 0.000000000000e+00 7.219761168373e-08
2.960000000000e+02 0.000000000000e+00 0.000000000000e+00 7.216105952027e-08
2.970000000000e+02 0.000000000000e+00 0.000000000000e+00 7.213757209894e-08
2.980000000000e+02 0.000000000000e+00 0.000000000000e+00 7.212712584300e-08
2.990000000000e+02 0.000000000000e+00 0.000000000000e+00 7.212970382633e-08
3.000000000000e+02 0.000000000000e+00 0.000000000000e+00 7.214529574723e-08
3.010000000000e+02 0.000000000000e+00 0.000000000000e+00 7.217389790754e-08
3.020000000000e+02 0.000000000000e+00 0.000000000000e+00 7.221551319685e-08
3.030000000000e+02 0.000000000000e+00 0.000000000000e+00 7.227015108202e-08
3.040000000000e+02 0.000000000000e+00 0.000000000000e+00 7.233782760170e-08
3.050000000000e+02 0.000000000000e+00 0.000000000000e+00 7.241856536603e-08
3.060000000000e+02 0.000000000000e+00 0.000000000000e+00 7.251239356150e-08
3.070000000000e+02 0.000000000000e+00 0.000000000000e+00 7.261934796076e-08
3.080000000000e+02 0.000000000000e+00 0.000000000000e+00 7.273947093759e-08
3.090000000000e+02 0.000000000000e+00 0.000000000000e+00 7.287281148694e-08
3.100000000000e+02 0.000000000000e+00 0.000000000000e+00 7.301942525003e-08
3.110000000000e+02 0.000000000000e+00 0.000000000000e+00 7.317937454449e-08
3.120000000000e+02 0.000000000000e+00 0.000000000000e+00 7.335272839964e-08
3.130000000000e+02 0.000000000000e+00 0.000000000000e+00 7.353956259684e-08
3.140000000000e+02 0.000000000000e+00 0.000000000000e+00 7.373995971501e-08
3.150000000000e+02 0.000000000000e+00 0.000000000000e+00 7.395400918123e-08
3.160000000000e+02 0.000000000000e+00 0.000000000000e+00 7.418180732658e-08
3.170000000000e+02 0.000000000000e+00 0.000000000000e+00 7.442345744717e-08
3.180000000000e+02 0.000000000000e+00 0.000000000000e+00 7.467906987041e-08
3.190000000000e+02 0.000000000000e+00 0.000000000000e+00 7.494876202664e-08
3.200000000000e+02 0.000000000000e+00 0.000000000000e+00 7.523265852603e-08
3.210000000000e+02 0.000000000000e+00 0.000000000000e+00 7.553089124091e-08
3.220000000000e+02 0.000000000000e+00 0.000000000000e+00 7.584359939362e-08
3.230000000000e+02 0.000000000000e+00 0.000000000000e+00 7.617092964982e-08
3.240000000000e+02 0.000000000000e+00 0.000000000000e+00 7.651303621739e-08
3.250000000000e+02 0.000000000000e+00 0.000000000000e+00 7.687008095110e-08
3.260000000000e+02 0.000000000000e+00 0.000000000000e+00 7.724223346286e-08
3.270000000000e+02 0.000000000000e+00 0.000000000000e+00 7.762967123802e-08
3.280000000000e+02 0.000000000000e+00 0.000000000000e+00 7.803257975739e-08
3.290000000000e+02 0.000000000000e+00 0.000000000000e+00 7.845115262540e-08
3.300000000000e+02 0.000000000000e+00 0.000000000000e+00 7.888559170437e-08
3.310000000000e+02 0.000000000000e+00 0.000000000000e+00 7.933610725495e-08
3.320000000000e+02 0.000000000000e+00 0.000000000000e+00 7.980291808295e-08
3.330000000000e+02 0.000000000000e+00 0.000000000000e+00 8.028625169260e-08
3.340000000000e+02 0.000000000000e+00 0.000000000000e+00 8.078634444638e-08
3.350000000000e+02 0.000000000000e+00 0.000000000000e+00 8.130344173154e-08
3.360000000000e+02 0.000000000000e+00 0.000000000000e+00 8.183779813352e-08
3.370000000000e+02 0.000000000000e+00 0.000000000000e+00 8.238967761625e-08
3.380000000000e+02 0.000000000000e+00 0.000000000000e+00 8.295935370962e-08
3.390000000000e+02 0.000000000000e+00 0.000000000000e+00 8.354710970422e-08
3.400000000000e+02 0.000000000000e+00 0.000000000000e+00 8.415323885351e-08
3.410000000000e+02 0.000000000000e+00 0.000000000000e+00 8.477804458355e-08
3.420000000000e+02 0.000000000000e+00 0.000000000000e+00 8.542184071052e-08
3.430000000000e+02 0.000000000000e+00 0.000000000000e+00 8.608495166616e-08
3.440000000000e+02 0.000000000000e+00 0.000000000000e+00 8.676771273133e-08
3.450000000000e+02 0.000000000000e+00 0.000000000000e+00 8.747047027789e-08
3.460000000000e+02 0.000000000000e+00 0.000000000000e+00 8.819358201908e-08
3.470000000000e+02 0.000000000000e+00 0.000000000000e+00 8.893741726857e-08
3.480000000000e+02 0.000000000000e+00 0.000000000000e+00 8.970235720851e-08
3.490000000000e+02 0.000000000000e+00 0.000000000000e+00 9.048879516664e-08
3.500000000000e+02 0.000000000000e+00 0.000000000000e+00 9.129713690277e-08
3.510000000000e+02 0.000000000000e+00 0.000000000000e+00 9.212780090492e-08
3.520000000000e+02 0.000000000000e+00 0.000000000000e+00 9.298121869523e-08
3.530000000000e+02 0.000000000000e+00 0.000000000000e+00 9.385783514593e-08
3.540000000000e+02 0.000000000000e+00 0.000000000000e+00 9.475810880577e-08
3.550000000000e+02 0.000000000000e+00 0.000000000000e+00 9.568251223691e-08
3.560000000000e+02 0.000000000000e+00 0.000000000000e+00 9.663153236278e-08
3.570000000000e+02 0.000000000000e+00 0.000000000000e+00 9.760567082707e-08
3.580000000000e+02 0.000000000000e+00 0.000000000000e+00 9.860544436419e-08
3.590000000000e+02 0.000000000000e+00 0.000000000000e+00 9.963138518145e-08
3.600000000000e+02 0.000000000000e+00 0.000000000000e+00 1.006840413533e-07
3.610000000000e+02 0.000000000000e+00 0.000000000000e+00 1.017639772281e-07
3.620000000000e+02 0.000000000000e+00 0.000000000000e+00 1.028717738472e-07
3.630000000000e+02 0.000000000000e+00 0.000000000000e+00 1.040080293775e-07
3.640000000000e+02 0.000000000000e+00 0.000000000000e+00 1.051733595574e-07
3.650000000000e+02 0.000000000000e+00 0.000000000000e+00 1.063683981559e-07
3.660000000000e+02 0.000000000000e+00 0.000000000000e+00 1.075937974466e-07
3.670000000000e+02 0.000000000000e+00 0.000000000000e+00 1.088502286958e-07
3.680000000000e+02 0.000000000000e+00 0.000000000000e+00 1.101383826655e-07
3.690000000000e+02 0.000000000000e+00 0.000000000000e+00 1.114589701316e-07
3.700000000000e+02 0.000000000000e+00 0.000000000000e+00 1.128127224182e-07
3.710000000000e+02 0.000000000000e+00 0.000000000000e+00 1.142003919476e-07
3.720000000000e+02 0.000000000000e+00 0.000000000000e+00 1.156227528071e-07
3.730000000000e+02 0.000000000000e+00 0.000000000000e+00 1.170806013328e-07
3.740000000000e+02 0.000000000000e+00 0.000000000000e+00 1.185747567107e-07
3.750000000000e+02 0.000000000000e+00 0.000000000000e+00 1.201060615961e-07
3.760000000000e+02 0.000000000000e+00 0.000000000000e+00 1.216753827510e-07
3.770000000000e+02 0.000000000000e+00 0.000000000000e+00 1.232836117009e-07
3.780000000000e+02 0.000000000000e+00 0.000000000000e+00 1.249316654107e-07
3.790000000000e+02 0.000000000000e+00 0.000000000000e+00 1.266204869807e-07
3.800000000000e+02 0.000000000000e+00 0.000000000000e+00 1.283510463633e-07
3.810000000000e+02 0.000000000000e+00 0.000000000000e+00 1.301243411006e-07
3.820000000000e+02 0.000000000000e+00 0.000000000000e+00 1.319413970835e-07
3.830000000000e+02 0.000000000000e+00 0.000000000000e+00 1.338032693336e-07
3.840000000000e+02 0.000000000000e+00 0.000000000000e+00 1.357110428069e-07
3.850000000000e+02 0.000000000000e+00 0.000000000000e+00 1.376658332228e-07
3.860000000000e+02 0.000000000000e+00 0.000000000000e+00 1.396687879147e-07
3.870000000000e+02 0.000000000000e+00 0.000000000000e+00 1.417210867077e-07
3.880000000000e+02 0.000000000000e+00 0.000000000000e+00 1.438239428204e-07
3.890000000000e+02 0.000000000000e+00 0.000000000000e+00 1.459786037929e-07
3.900000000000e+02 0.000000000000e+00 0.000000000000e+00 1.481863524419e-07
3.910000000000e+02 0.000000000000e+00 0.000000000000e+00 1.504485078436e-07
3.920000000000e+02 0.000000000000e+00 0.000000000000e+00 1.527664263437e-07