 TITLE = "Profiles along polylines"
 VARIABLES = "DIST" "HEAD" "VELOCITY_X1" "VELOCITY_Y1" "VELOCITY_Z1" 
 ZONE T="TIME=0.000000000000e+00"
0.000000000000e+00 3.000000000000e+01 0.000000000000e+00 0.000000000000e+00 0.000000000000e+00 
1.000000000000e+00 3.000000000000e+01 0.000000000000e+00 0.000000000000e+00 0.000000000000e+00 
2.000000000000e+00 3.000000000000e+01 0.000000000000e+00 0.000000000000e+00 0.000000000000e+00 
3.000000000000e+00 3.000000000000e+01 0.000000000000e+00 0.000000000000e+00 0.000000000000e+00 
4.000000000000e+00 3.000000000000e+01 0.000000000000e+00 0.000000000000e+00 0.000000000000e+00 
5.000000000000e+00 3.000000000000e+01 0.000000000000e+00 0.000000000000e+00 0.000000000000e+00 
6.000000000000e+00 3.000000000000e+01 0.000000000000e+00 0.000000000000e+00 0.000000000000e+00 
7.000000000000e+00 3.000000000000e+01 0.000000000000e+00 0.000000000000e+00 0.000000000000e+00 
8.000000000000e+00 3.000000000000e+01 0.000000000000e+00 0.000000000000e+00 0.000000000000e+00 
9.000000000000e+00 3.000000000000e+01 0.000000000000e+00 0.000000000000e+00 0.000000000000e+00 
1.000000000000e+01 3.000000000000e+01 0.000000000000e+00 0.000000000000e+00 0.000000000000e+00 
1.100000000000e+01 3.000000000000e+01 0.000000000000e+00 0.000000000000e+00 0.000000000000e+00 
1.200000000000e+01 3.000000000000e+01 0.000000000000e+00 0.000000000000e+00 0.000000000000e+00 
1.300000000000e+01 3.000000000000e+01 0.000000000000e+00 0.000000000000e+00 0.000000000000e+00 
1.400000000000e+01 3.000000000000e+01 0.000000000000e+00 0.000000000000e+00 0.000000000000e+00 
1.500000000000e+01 3.000000000000e+01 0.000000000000e+00 0.000000000000e+00 0.000000000000e+00 
1.600000000000e+01 3.000000000000e+01 0.000000000000e+00 0.000000000000e+00 0.000000000000e+00 
1.700000000000e+01 3.000000000000e+01 0.000000000000e+00 0.000000000000e+00 0.000000000000e+00 
1.800000000000e+01 3.000000000000e+01 0.000000000000e+00 0.000000000000e+00 0.000000000000e+00 
1.900000000000e+01 3.000000000000e+01 0.000000000000e+00 0.000000000000e+00 0.000000000000e+00 
2.000000000000e+01 3.000000000000e+01 0.000000000000e+00 0.000000000000e+00 0.000000000000e+00 
2.100000000000e+01 3.000000000000e+01 0.000000000000e+00 0.000000000000e+00 0.000000000000e+00 
2.200000000000e+01 3.000000000000e+01 0.000000000000e+00 0.000000000000e+00 0.000000000000e+00 
2.300000000000e+01 3.000000000000e+01 0.000000000000e+00 0.000000000000e+00 0.000000000000e+00 
2.400000000000e+01 3.000000000000e+01 0.000000000000e+00 0.000000000000e+00 0.000000000000e+00 
2.500000000000e+01 3.000000000000e+01 0.000000000000e+00 0.000000000000e+00 0.000000000000e+00 
2.600000000000e+01 3.000000000000e+01 0.000000000000e+00 0.000000000000e+00 0.000000000000e+00 
2.700000000000e+01 3.000000000000e+01 0.000000000000e+00 0.000000000000e+00 0.000000000000e+00 
2.800000000000e+01 3.000000000000e+01 0.000000000000e+00 0.000000000000e+00 0.000000000000e+00 
2.900000000000e+01 3.000000000000e+01 0.000000000000e+00 0.000000000000e+00 0.000000000000e+00 
3.000000000000e+01 3.000000000000e+01 0.000000000000e+00 0.000000000000e+00 0.000000000000e+00 
 TITLE = "Profiles along polylines"
 VARIABLES = "DIST" "HEAD" "VELOCITY_X1" "VELOCITY_Y1" "VELOCITY_Z1" 
 ZONE T="TIME=1.797693134862e+308"
0.000000000000e+00 3.040754045428e+01 5.556377868615e-07 -5.550692593332e-10 0.000000000000e+00 
1.000000000000e+00 3.040754100635e+01 2.946828968520e-07 -8.493963076033e-10 0.000000000000e+00 
2.000000000000e+00 3.040755974616e+01 2.097965882390e-08 -1.164678688709e-09 0.000000000000e+00 
3.000000000000e+00 3.040763934693e+01 5.214832369853e-09 -1.190843416536e-09 0.000000000000e+00 
4.000000000000e+00 3.040794001766e+01 1.706813829626e-08 -1.213104772909e-09 0.000000000000e+00 
5.000000000000e+00 3.040796130369e+01 1.687381040569e-08 -1.247011667297e-09 0.000000000000e+00 
6.000000000000e+00 3.040834726064e+01 1.341344245348e-08 -1.277268322633e-09 0.000000000000e+00 
7.000000000000e+00 3.040837577237e+01 2.524878887669e-08 -1.315894292223e-09 0.000000000000e+00 
8.000000000000e+00 3.040840486000e+01 1.014856453128e-07 -1.442514935099e-09 0.000000000000e+00 
9.000000000000e+00 3.040840966722e+01 1.133704282939e-07 -1.657166665241e-09 0.000000000000e+00 
1.000000000000e+01 3.040842953360e+01 1.821759413011e-07 -1.952439149055e-09 0.000000000000e+00 
1.100000000000e+01 3.040843327715e+01 1.636953366233e-07 -2.297984598449e-09 0.000000000000e+00 
1.200000000000e+01 3.040854397601e+01 1.201587067938e-08 -2.473517942741e-09 0.000000000000e+00 
1.300000000000e+01 3.040866094996e+01 9.967787181690e-09 -2.495482061018e-09 0.000000000000e+00 
1.400000000000e+01 3.040882996123e+01 3.788908730129e-07 -2.884036819380e-09 0.000000000000e+00 
1.500000000000e+01 3.040883236669e+01 5.918001922148e-07 -3.853887168514e-09 0.000000000000e+00 
1.600000000000e+01 3.040883802697e+01 2.170565181318e-07 -4.661992240343e-09 0.000000000000e+00 
1.700000000000e+01 3.043533019268e+01 8.604146394077e-10 -4.879706233904e-09 0.000000000000e+00 
1.800000000000e+01 3.043699752433e+01 3.908653462970e-09 -4.884493789964e-09 0.000000000000e+00 
1.900000000000e+01 3.043743374974e+01 3.525616544618e-09 -4.891957009445e-09 0.000000000000e+00 
2.000000000000e+01 3.044060855218e+01 1.305884361827e-09 -4.896808036253e-09 0.000000000000e+00 
2.100000000000e+01 3.044214909027e+01 5.589728402005e-09 -4.903736315318e-09 0.000000000000e+00 
2.200000000000e+01 3.044243737584e+01 7.787312067569e-09 -4.917176958020e-09 0.000000000000e+00 
2.300000000000e+01 3.044288009864e+01 9.674623790404e-09 -4.934722854372e-09 0.000000000000e+00 
2.400000000000e+01 3.044308739263e+01 6.822523291175e-09 -4.951299930187e-09 0.000000000000e+00 
2.500000000000e+01 3.044918595053e+01 1.921341421278e-08 -4.977482162455e-09 0.000000000000e+00 
2.600000000000e+01 3.044925875049e+01 1.537185669326e-07 -5.151432339609e-09 0.000000000000e+00 
2.700000000000e+01 3.044926964573e+01 1.750333065196e-07 -5.482094703322e-09 0.000000000000e+00 
2.800000000000e+01 3.044930848428e+01 4.067869823672e-08 -5.699046363085e-09 0.000000000000e+00 
2.900000000000e+01 3.045353804835e+01 7.557475337952e-09 -5.747561299533e-09 0.000000000000e+00 
3.000000000000e+01 3.045375973613e+01 1.436406497272e-08 -5.755163673898e-09 0.000000000000e+00 
