 TITLE = "Profiles along polylines"
 VARIABLES = "DIST" "HEAD" "VELOCITY_X1" "VELOCITY_Y1" "VELOCITY_Z1" 
 ZONE T="TIME=0.000000000000e+00"
0.000000000000e+00 3.000000000000e+01 0.000000000000e+00 0.000000000000e+00 0.000000000000e+00 
1.000000000000e+00 3.000000000000e+01 0.000000000000e+00 0.000000000000e+00 0.000000000000e+00 
2.000000000000e+00 3.000000000000e+01 0.000000000000e+00 0.000000000000e+00 0.000000000000e+00 
3.000000000000e+00 3.000000000000e+01 0.000000000000e+00 0.000000000000e+00 0.000000000000e+00 
4.000000000000e+00 3.000000000000e+01 0.000000000000e+00 0.000000000000e+00 0.000000000000e+00 
5.000000000000e+00 3.000000000000e+01 0.000000000000e+00 0.000000000000e+00 0.000000000000e+00 
6.000000000000e+00 3.000000000000e+01 0.000000000000e+00 0.000000000000e+00 0.000000000000e+00 
7.000000000000e+00 3.000000000000e+01 0.000000000000e+00 0.000000000000e+00 0.000000000000e+00 
8.000000000000e+00 3.000000000000e+01 0.000000000000e+00 0.000000000000e+00 0.000000000000e+00 
9.000000000000e+00 3.000000000000e+01 0.000000000000e+00 0.000000000000e+00 0.000000000000e+00 
1.000000000000e+01 3.000000000000e+01 0.000000000000e+00 0.000000000000e+00 0.000000000000e+00 
1.100000000000e+01 3.000000000000e+01 0.000000000000e+00 0.000000000000e+00 0.000000000000e+00 
1.200000000000e+01 3.000000000000e+01 0.000000000000e+00 0.000000000000e+00 0.000000000000e+00 
1.300000000000e+01 3.000000000000e+01 0.000000000000e+00 0.000000000000e+00 0.000000000000e+00 
1.400000000000e+01 3.000000000000e+01 0.000000000000e+00 0.000000000000e+00 0.000000000000e+00 
1.500000000000e+01 3.000000000000e+01 0.000000000000e+00 0.000000000000e+00 0.000000000000e+00 
1.600000000000e+01 3.000000000000e+01 0.000000000000e+00 0.000000000000e+00 0.000000000000e+00 
1.700000000000e+01 3.000000000000e+01 0.000000000000e+00 0.000000000000e+00 0.000000000000e+00 
1.800000000000e+01 3.000000000000e+01 0.000000000000e+00 0.000000000000e+00 0.000000000000e+00 
1.900000000000e+01 3.000000000000e+01 0.000000000000e+00 0.000000000000e+00 0.000000000000e+00 
2.000000000000e+01 3.000000000000e+01 0.000000000000e+00 0.000000000000e+00 0.000000000000e+00 
2.100000000000e+01 3.000000000000e+01 0.000000000000e+00 0.000000000000e+00 0.000000000000e+00 
2.200000000000e+01 3.000000000000e+01 0.000000000000e+00 0.000000000000e+00 0.000000000000e+00 
2.300000000000e+01 3.000000000000e+01 0.000000000000e+00 0.000000000000e+00 0.000000000000e+00 
2.400000000000e+01 3.000000000000e+01 0.000000000000e+00 0.000000000000e+00 0.000000000000e+00 
2.500000000000e+01 3.000000000000e+01 0.000000000000e+00 0.000000000000e+00 0.000000000000e+00 
2.600000000000e+01 3.000000000000e+01 0.000000000000e+00 0.000000000000e+00 0.000000000000e+00 
2.700000000000e+01 3.000000000000e+01 0.000000000000e+00 0.000000000000e+00 0.000000000000e+00 
2.800000000000e+01 3.000000000000e+01 0.000000000000e+00 0.000000000000e+00 0.000000000000e+00 
2.900000000000e+01 3.000000000000e+01 0.000000000000e+00 0.000000000000e+00 0.000000000000e+00 
3.000000000000e+01 3.000000000000e+01 0.000000000000e+00 0.000000000000e+00 0.000000000000e+00 
 TITLE = "Profiles along polylines"
 VARIABLES = "DIST" "HEAD" "VELOCITY_X1" "VELOCITY_Y1" "VELOCITY_Z1" 
 ZONE T="TIME=1.797693134862e+308"
0.000000000000e+00 3.009984070197e+01 9.752208888236e-07 -3.872787990019e-10 0.000000000000e+00 
1.000000000000e+00 3.009984108715e+01 5.172102606547e-07 -5.927111841646e-10 0.000000000000e+00 
2.000000000000e+00 3.009985416467e+01 3.682509382707e-08 -8.127863505328e-10 0.000000000000e+00 
3.000000000000e+00 3.009990971638e+01 9.156446059772e-09 -8.310872930487e-10 0.000000000000e+00 
4.000000000000e+00 3.010011955956e+01 3.000581421544e-08 -8.469502470916e-10 0.000000000000e+00 
5.000000000000e+00 3.010013442595e+01 2.966675631137e-08 -8.712387469535e-10 0.000000000000e+00 
6.000000000000e+00 3.010040417313e+01 2.361990311326e-08 -8.931607583564e-10 0.000000000000e+00 
7.000000000000e+00 3.010042412096e+01 4.446605251320e-08 -9.215521675639e-10 0.000000000000e+00 
8.000000000000e+00 3.010044451098e+01 1.787490044715e-07 -1.014806449497e-09 0.000000000000e+00 
9.000000000000e+00 3.010044790334e+01 1.996857721909e-07 -1.172989995224e-09 0.000000000000e+00 
1.000000000000e+01 3.010046200255e+01 3.209019596727e-07 -1.390769433542e-09 0.000000000000e+00 
1.100000000000e+01 3.010046467731e+01 2.883526711498e-07 -1.645780976900e-09 0.000000000000e+00 
1.200000000000e+01 3.010054411993e+01 2.117523679125e-08 -1.775415184146e-09 0.000000000000e+00 
1.300000000000e+01 3.010062809450e+01 1.757387073252e-08 -1.791786402654e-09 0.000000000000e+00 
1.400000000000e+01 3.010074946692e+01 6.684441542128e-07 -2.085328045808e-09 0.000000000000e+00 
1.500000000000e+01 3.010075121531e+01 1.044070917264e-06 -2.818382560582e-09 0.000000000000e+00 
1.600000000000e+01 3.010075537329e+01 3.829452722013e-07 -3.429338985668e-09 0.000000000000e+00 
1.700000000000e+01 3.012026719783e+01 1.663952351778e-09 -3.594973066172e-09 0.000000000000e+00 
1.800000000000e+01 3.012149589661e+01 7.600558162409e-09 -3.604357392397e-09 0.000000000000e+00 
1.900000000000e+01 3.012181822783e+01 6.865474612609e-09 -3.619149817837e-09 0.000000000000e+00 
2.000000000000e+01 3.012416987265e+01 2.569061089146e-09 -3.628988585016e-09 0.000000000000e+00 
2.100000000000e+01 3.012531212546e+01 1.105069234060e-08 -3.644081137935e-09 0.000000000000e+00 
2.200000000000e+01 3.012552683463e+01 1.540914397297e-08 -3.673621187688e-09 0.000000000000e+00 
2.300000000000e+01 3.012585861662e+01 1.916971457253e-08 -3.712447517988e-09 0.000000000000e+00 
2.400000000000e+01 3.012601516476e+01 1.352684394694e-08 -3.749320563481e-09 0.000000000000e+00 
2.500000000000e+01 3.013064564744e+01 3.877850130994e-08 -3.812295319375e-09 0.000000000000e+00 
2.600000000000e+01 3.013070188470e+01 3.103125014786e-07 -4.241973144572e-09 0.000000000000e+00 
2.700000000000e+01 3.013071137936e+01 3.533466297971e-07 -5.058965934680e-09 0.000000000000e+00 
2.800000000000e+01 3.013074909107e+01 8.212080254595e-08 -5.595078258151e-09 0.000000000000e+00 
2.900000000000e+01 3.013494639881e+01 1.526269544441e-08 -5.715007064277e-09 0.000000000000e+00 
3.000000000000e+01 3.013516726485e+01 2.900922648046e-08 -5.733830400450e-09 0.000000000000e+00 
