VARIABLES = "X","Y","Z",VELOCITY1_X,VELOCITY1_Y,VELOCITY1_Z
ZONE T="0.000000000000e+00s", 
2.490000000000e+02 0.000000000000e+00 5.000000000000e-01 0.000000000000e+00 0.000000000000e+00 0.000000000000e+00
2.500000000000e+02 0.000000000000e+00 5.000000000000e-01 0.000000000000e+00 0.000000000000e+00 0.000000000000e+00
2.490000000000e+02 0.000000000000e+00 1.500000000000e+00 0.000000000000e+00 0.000000000000e+00 0.000000000000e+00
2.500000000000e+02 0.000000000000e+00 1.500000000000e+00 0.000000000000e+00 0.000000000000e+00 0.000000000000e+00
2.490000000000e+02 0.000000000000e+00 2.500000000000e+00 0.000000000000e+00 0.000000000000e+00 0.000000000000e+00
2.500000000000e+02 0.000000000000e+00 2.500000000000e+00 0.000000000000e+00 0.000000000000e+00 0.000000000000e+00
2.490000000000e+02 0.000000000000e+00 3.500000000000e+00 0.000000000000e+00 0.000000000000e+00 0.000000000000e+00
2.500000000000e+02 0.000000000000e+00 3.500000000000e+00 0.000000000000e+00 0.000000000000e+00 0.000000000000e+00
2.490000000000e+02 0.000000000000e+00 4.500000000000e+00 0.000000000000e+00 0.000000000000e+00 0.000000000000e+00
2.500000000000e+02 0.000000000000e+00 4.500000000000e+00 0.000000000000e+00 0.000000000000e+00 0.000000000000e+00
2.490000000000e+02 0.000000000000e+00 5.500000000000e+00 0.000000000000e+00 0.000000000000e+00 0.000000000000e+00
2.500000000000e+02 0.000000000000e+00 5.500000000000e+00 0.000000000000e+00 0.000000000000e+00 0.000000000000e+00
2.490000000000e+02 0.000000000000e+00 6.500000000000e+00 0.000000000000e+00 0.000000000000e+00 0.000000000000e+00
2.500000000000e+02 0.000000000000e+00 6.500000000000e+00 0.000000000000e+00 0.000000000000e+00 0.000000000000e+00
2.490000000000e+02 0.000000000000e+00 7.500000000000e+00 0.000000000000e+00 0.000000000000e+00 0.000000000000e+00
2.500000000000e+02 0.000000000000e+00 7.500000000000e+00 0.000000000000e+00 0.000000000000e+00 0.000000000000e+00
2.490000000000e+02 0.000000000000e+00 8.500000000000e+00 0.000000000000e+00 0.000000000000e+00 0.000000000000e+00
2.500000000000e+02 0.000000000000e+00 8.500000000000e+00 0.000000000000e+00 0.000000000000e+00 0.000000000000e+00
2.490000000000e+02 0.000000000000e+00 9.500000000000e+00 0.000000000000e+00 0.000000000000e+00 0.000000000000e+00
2.500000000000e+02 0.000000000000e+00 9.500000000000e+00 0.000000000000e+00 0.000000000000e+00 0.000000000000e+00
2.490000000000e+02 0.000000000000e+00 1.050000000000e+01 0.000000000000e+00 0.000000000000e+00 0.000000000000e+00
2.500000000000e+02 0.000000000000e+00 1.050000000000e+01 0.000000000000e+00 0.000000000000e+00 0.000000000000e+00
2.490000000000e+02 0.000000000000e+00 1.150000000000e+01 0.000000000000e+00 0.000000000000e+00 0.000000000000e+00
2.500000000000e+02 0.000000000000e+00 1.150000000000e+01 0.000000000000e+00 0.000000000000e+00 0.000000000000e+00
2.490000000000e+02 0.000000000000e+00 1.250000000000e+01 0.000000000000e+00 0.000000000000e+00 0.000000000000e+00
2.500000000000e+02 0.000000000000e+00 1.250000000000e+01 0.000000000000e+00 0.000000000000e+00 0.000000000000e+00
2.490000000000e+02 0.000000000000e+00 1.350000000000e+01 0.000000000000e+00 0.000000000000e+00 0.000000000000e+00
2.500000000000e+02 0.000000000000e+00 1.350000000000e+01 0.000000000000e+00 0.000000000000e+00 0.000000000000e+00
2.490000000000e+02 0.000000000000e+00 1.450000000000e+01 0.000000000000e+00 0.000000000000e+00 0.000000000000e+00
2.500000000000e+02 0.000000000000e+00 1.450000000000e+01 0.000000000000e+00 0.000000000000e+00 0.000000000000e+00
2.490000000000e+02 0.000000000000e+00 1.550000000000e+01 0.000000000000e+00 0.000000000000e+00 0.000000000000e+00
2.500000000000e+02 0.000000000000e+00 1.550000000000e+01 0.000000000000e+00 0.000000000000e+00 0.000000000000e+00
2.490000000000e+02 0.000000000000e+00 1.650000000000e+01 0.000000000000e+00 0.000000000000e+00 0.000000000000e+00
2.500000000000e+02 0.000000000000e+00 1.650000000000e+01 0.000000000000e+00 0.000000000000e+00 0.000000000000e+00
2.490000000000e+02 0.000000000000e+00 1.750000000000e+01 0.000000000000e+00 0.000000000000e+00 0.000000000000e+00
2.500000000000e+02 0.000000000000e+00 1.750000000000e+01 0.000000000000e+00 0.000000000000e+00 0.000000000000e+00
2.490000000000e+02 0.000000000000e+00 1.850000000000e+01 0.000000000000e+00 0.000000000000e+00 0.000000000000e+00
2.500000000000e+02 0.000000000000e+00 1.850000000000e+01 0.000000000000e+00 0.000000000000e+00 0.000000000000e+00
2.490000000000e+02 0.000000000000e+00 1.950000000000e+01 0.000000000000e+00 0.000000000000e+00 0.000000000000e+00
2.500000000000e+02 0.000000000000e+00 1.950000000000e+01 0.000000000000e+00 0.000000000000e+00 0.000000000000e+00
2.490000000000e+02 0.000000000000e+00 2.050000000000e+01 0.000000000000e+00 0.000000000000e+00 0.000000000000e+00
2.500000000000e+02 0.000000000000e+00 2.050000000000e+01 0.000000000000e+00 0.000000000000e+00 0.000000000000e+00
2.490000000000e+02 0.000000000000e+00 2.150000000000e+01 0.000000000000e+00 0.000000000000e+00 0.000000000000e+00
2.500000000000e+02 0.000000000000e+00 2.150000000000e+01 0.000000000000e+00 0.000000000000e+00 0.000000000000e+00
2.490000000000e+02 0.000000000000e+00 2.250000000000e+01 0.000000000000e+00 0.000000000000e+00 0.000000000000e+00
2.500000000000e+02 0.000000000000e+00 2.250000000000e+01 0.000000000000e+00 0.000000000000e+00 0.000000000000e+00
2.490000000000e+02 0.000000000000e+00 2.350000000000e+01 0.000000000000e+00 0.000000000000e+00 0.000000000000e+00
2.500000000000e+02 0.000000000000e+00 2.350000000000e+01 0.000000000000e+00 0.000000000000e+00 0.000000000000e+00
2.490000000000e+02 0.000000000000e+00 2.450000000000e+01 0.000000000000e+00 0.000000000000e+00 0.000000000000e+00
2.500000000000e+02 0.000000000000e+00 2.450000000000e+01 0.000000000000e+00 0.000000000000e+00 0.000000000000e+00
2.490000000000e+02 0.000000000000e+00 2.550000000000e+01 0.000000000000e+00 0.000000000000e+00 0.000000000000e+00
2.500000000000e+02 0.000000000000e+00 2.550000000000e+01 0.000000000000e+00 0.000000000000e+00 0.000000000000e+00
2.490000000000e+02 0.000000000000e+00 2.650000000000e+01 0.000000000000e+00 0.000000000000e+00 0.000000000000e+00
2.500000000000e+02 0.000000000000e+00 2.650000000000e+01 0.000000000000e+00 0.000000000000e+00 0.000000000000e+00
2.490000000000e+02 0.000000000000e+00 2.750000000000e+01 0.000000000000e+00 0.000000000000e+00 0.000000000000e+00
2.500000000000e+02 0.000000000000e+00 2.750000000000e+01 0.000000000000e+00 0.000000000000e+00 0.000000000000e+00
2.490000000000e+02 0.000000000000e+00 2.850000000000e+01 0.000000000000e+00 0.000000000000e+00 0.000000000000e+00
2.500000000000e+02 0.000000000000e+00 2.850000000000e+01 0.000000000000e+00 0.000000000000e+00 0.000000000000e+00
2.490000000000e+02 0.000000000000e+00 2.950000000000e+01 0.000000000000e+00 0.000000000000e+00 0.000000000000e+00
2.500000000000e+02 0.000000000000e+00 2.950000000000e+01 0.000000000000e+00 0.000000000000e+00 0.000000000000e+00
VARIABLES = "X","Y","Z",VELOCITY1_X,VELOCITY1_Y,VELOCITY1_Z
ZONE T="1.797693134862e+308s", 
2.490000000000e+02 0.000000000000e+00 5.000000000000e-01 2.773132540003e-07 -5.556945400892e-10 0.000000000000e+00
2.500000000000e+02 0.000000000000e+00 5.000000000000e-01 2.784245777901e-07 -5.556941864565e-10 0.000000000000e+00
2.490000000000e+02 0.000000000000e+00 1.500000000000e+00 1.683330504848e-08 -1.145256239741e-09 0.000000000000e+00
2.500000000000e+02 0.000000000000e+00 1.500000000000e+00 1.690076399185e-08 -1.145255551745e-09 0.000000000000e+00
2.490000000000e+02 0.000000000000e+00 2.500000000000e+00 4.108156757624e-09 -1.187227255790e-09 0.000000000000e+00
2.500000000000e+02 0.000000000000e+00 2.500000000000e+00 4.124620070901e-09 -1.187226517389e-09 0.000000000000e+00
2.490000000000e+02 0.000000000000e+00 3.500000000000e+00 1.097167536796e-09 -1.197658513064e-09 0.000000000000e+00
2.500000000000e+02 0.000000000000e+00 3.500000000000e+00 1.101564399210e-09 -1.197657764606e-09 0.000000000000e+00
2.490000000000e+02 0.000000000000e+00 4.500000000000e+00 1.593968962974e-08 -1.231798258447e-09 0.000000000000e+00
2.500000000000e+02 0.000000000000e+00 4.500000000000e+00 1.600356742113e-08 -1.231797451960e-09 0.000000000000e+00
2.490000000000e+02 0.000000000000e+00 5.500000000000e+00 9.031844368874e-10 -1.265556855053e-09 0.000000000000e+00
2.500000000000e+02 0.000000000000e+00 5.500000000000e+00 9.068039178506e-10 -1.265555963122e-09 0.000000000000e+00
2.490000000000e+02 0.000000000000e+00 6.500000000000e+00 1.248550369527e-08 -1.292386355932e-09 0.000000000000e+00
2.500000000000e+02 0.000000000000e+00 6.500000000000e+00 1.253553924653e-08 -1.292385433444e-09 0.000000000000e+00
2.490000000000e+02 0.000000000000e+00 7.500000000000e+00 1.271666704207e-08 -1.342895052435e-09 0.000000000000e+00
2.500000000000e+02 0.000000000000e+00 7.500000000000e+00 1.276762900675e-08 -1.342894069623e-09 0.000000000000e+00
2.490000000000e+02 0.000000000000e+00 8.500000000000e+00 8.858151088935e-08 -1.545889670466e-09 0.000000000000e+00
2.500000000000e+02 0.000000000000e+00 8.500000000000e+00 8.893650082350e-08 -1.545888434755e-09 0.000000000000e+00
2.490000000000e+02 0.000000000000e+00 9.500000000000e+00 2.457947953578e-08 -1.772693090732e-09 0.000000000000e+00
2.500000000000e+02 0.000000000000e+00 9.500000000000e+00 2.467798168551e-08 -1.772692010474e-09 0.000000000000e+00
2.490000000000e+02 0.000000000000e+00 1.050000000000e+01 1.572598051396e-07 -2.137085458086e-09 0.000000000000e+00
2.500000000000e+02 0.000000000000e+00 1.050000000000e+01 1.578900231155e-07 -2.137084023929e-09 0.000000000000e+00
2.490000000000e+02 0.000000000000e+00 1.150000000000e+01 6.133008042218e-09 -2.464570053251e-09 0.000000000000e+00
2.500000000000e+02 0.000000000000e+00 1.150000000000e+01 6.157586048094e-09 -2.464568659795e-09 0.000000000000e+00
2.490000000000e+02 0.000000000000e+00 1.250000000000e+01 5.860616055372e-09 -2.488605861578e-09 0.000000000000e+00
2.500000000000e+02 0.000000000000e+00 1.250000000000e+01 5.884102527483e-09 -2.488604434895e-09 0.000000000000e+00
2.490000000000e+02 0.000000000000e+00 1.350000000000e+01 4.088681942650e-09 -2.508544639522e-09 0.000000000000e+00
2.500000000000e+02 0.000000000000e+00 1.350000000000e+01 4.105067424474e-09 -2.508543189053e-09 0.000000000000e+00
2.490000000000e+02 0.000000000000e+00 1.450000000000e+01 3.740975500787e-07 -3.266389716435e-09 0.000000000000e+00
2.500000000000e+02 0.000000000000e+00 1.450000000000e+01 3.755967607592e-07 -3.266385235041e-09 0.000000000000e+00
2.490000000000e+02 0.000000000000e+00 1.550000000000e+01 2.166020051299e-07 -4.450281193899e-09 0.000000000000e+00
2.500000000000e+02 0.000000000000e+00 1.550000000000e+01 2.174700468840e-07 -4.450277299027e-09 0.000000000000e+00
2.490000000000e+02 0.000000000000e+00 1.650000000000e+01 5.079452841806e-11 -4.884513150295e-09 0.000000000000e+00
2.500000000000e+02 0.000000000000e+00 1.650000000000e+01 5.099809284169e-11 -4.884510380802e-09 0.000000000000e+00
2.490000000000e+02 0.000000000000e+00 1.750000000000e+01 8.073972492819e-10 -4.886233075008e-09 0.000000000000e+00
2.500000000000e+02 0.000000000000e+00 1.750000000000e+01 8.106333217736e-10 -4.886230309461e-09 0.000000000000e+00
2.490000000000e+02 0.000000000000e+00 1.850000000000e+01 3.090988940778e-09 -4.894046383550e-09 0.000000000000e+00
2.500000000000e+02 0.000000000000e+00 1.850000000000e+01 3.103377807692e-09 -4.894043637335e-09 0.000000000000e+00
2.490000000000e+02 0.000000000000e+00 1.950000000000e+01 4.253248545174e-10 -4.901094919949e-09 0.000000000000e+00
2.500000000000e+02 0.000000000000e+00 1.950000000000e+01 4.270295862631e-10 -4.901092215418e-09 0.000000000000e+00
2.490000000000e+02 0.000000000000e+00 2.050000000000e+01 8.770014442103e-10 -4.903705148276e-09 0.000000000000e+00
2.500000000000e+02 0.000000000000e+00 2.050000000000e+01 8.805165654140e-10 -4.903702458056e-09 0.000000000000e+00
2.490000000000e+02 0.000000000000e+00 2.150000000000e+01 4.697273870503e-09 -4.914877366317e-09 0.000000000000e+00
2.500000000000e+02 0.000000000000e+00 2.150000000000e+01 4.716101190056e-09 -4.914874714201e-09 0.000000000000e+00
2.490000000000e+02 0.000000000000e+00 2.250000000000e+01 3.068451435346e-09 -4.930443654576e-09 0.000000000000e+00
2.500000000000e+02 0.000000000000e+00 2.250000000000e+01 3.080750226666e-09 -4.930441013188e-09 0.000000000000e+00
2.490000000000e+02 0.000000000000e+00 2.350000000000e+01 6.579243593823e-09 -4.949780792058e-09 0.000000000000e+00
2.500000000000e+02 0.000000000000e+00 2.350000000000e+01 6.605614189699e-09 -4.949778196626e-09 0.000000000000e+00
2.490000000000e+02 0.000000000000e+00 2.450000000000e+01 2.242533004022e-10 -4.963418644430e-09 0.000000000000e+00
2.500000000000e+02 0.000000000000e+00 2.450000000000e+01 2.251521450401e-10 -4.963416067828e-09 0.000000000000e+00
2.490000000000e+02 0.000000000000e+00 2.550000000000e+01 1.893267413728e-08 -5.001813652982e-09 0.000000000000e+00
2.500000000000e+02 0.000000000000e+00 2.550000000000e+01 1.900856115803e-08 -5.001811242286e-09 0.000000000000e+00
2.490000000000e+02 0.000000000000e+00 2.650000000000e+01 1.343337168680e-07 -5.309007037810e-09 0.000000000000e+00
2.500000000000e+02 0.000000000000e+00 2.650000000000e+01 1.348721610529e-07 -5.309005454682e-09 0.000000000000e+00
2.490000000000e+02 0.000000000000e+00 2.750000000000e+01 4.018469049036e-08 -5.658848569230e-09 0.000000000000e+00
2.500000000000e+02 0.000000000000e+00 2.750000000000e+01 4.034576093794e-08 -5.658848113767e-09 0.000000000000e+00
2.490000000000e+02 0.000000000000e+00 2.850000000000e+01 3.743376863074e-10 -5.740152943315e-09 0.000000000000e+00
2.500000000000e+02 0.000000000000e+00 2.850000000000e+01 3.758381272343e-10 -5.740152829303e-09 0.000000000000e+00
2.490000000000e+02 0.000000000000e+00 2.950000000000e+01 7.160880165125e-09 -5.755255323346e-09 0.000000000000e+00
2.500000000000e+02 0.000000000000e+00 2.950000000000e+01 7.189582810848e-09 -5.755255240892e-09 0.000000000000e+00
