 TITLE = "Profiles along polylines"
 VARIABLES = "DIST" "HEAD" "VELOCITY_X1" "VELOCITY_Y1" "VELOCITY_Z1" 
 ZONE T="TIME=0.000000000000e+00"
0.000000000000e+00 3.000000000000e+01 0.000000000000e+00 0.000000000000e+00 0.000000000000e+00 
1.000000000000e+00 3.000000000000e+01 0.000000000000e+00 0.000000000000e+00 0.000000000000e+00 
2.000000000000e+00 3.000000000000e+01 0.000000000000e+00 0.000000000000e+00 0.000000000000e+00 
3.000000000000e+00 3.000000000000e+01 0.000000000000e+00 0.000000000000e+00 0.000000000000e+00 
4.000000000000e+00 3.000000000000e+01 0.000000000000e+00 0.000000000000e+00 0.000000000000e+00 
5.000000000000e+00 3.000000000000e+01 0.000000000000e+00 0.000000000000e+00 0.000000000000e+00 
6.000000000000e+00 3.000000000000e+01 0.000000000000e+00 0.000000000000e+00 0.000000000000e+00 
7.000000000000e+00 3.000000000000e+01 0.000000000000e+00 0.000000000000e+00 0.000000000000e+00 
8.000000000000e+00 3.000000000000e+01 0.000000000000e+00 0.000000000000e+00 0.000000000000e+00 
9.000000000000e+00 3.000000000000e+01 0.000000000000e+00 0.000000000000e+00 0.000000000000e+00 
1.000000000000e+01 3.000000000000e+01 0.000000000000e+00 0.000000000000e+00 0.000000000000e+00 
1.100000000000e+01 3.000000000000e+01 0.000000000000e+00 0.000000000000e+00 0.000000000000e+00 
1.200000000000e+01 3.000000000000e+01 0.000000000000e+00 0.000000000000e+00 0.000000000000e+00 
1.300000000000e+01 3.000000000000e+01 0.000000000000e+00 0.000000000000e+00 0.000000000000e+00 
1.400000000000e+01 3.000000000000e+01 0.000000000000e+00 0.000000000000e+00 0.000000000000e+00 
1.500000000000e+01 3.000000000000e+01 0.000000000000e+00 0.000000000000e+00 0.000000000000e+00 
1.600000000000e+01 3.000000000000e+01 0.000000000000e+00 0.000000000000e+00 0.000000000000e+00 
1.700000000000e+01 3.000000000000e+01 0.000000000000e+00 0.000000000000e+00 0.000000000000e+00 
1.800000000000e+01 3.000000000000e+01 0.000000000000e+00 0.000000000000e+00 0.000000000000e+00 
1.900000000000e+01 3.000000000000e+01 0.000000000000e+00 0.000000000000e+00 0.000000000000e+00 
2.000000000000e+01 3.000000000000e+01 0.000000000000e+00 0.000000000000e+00 0.000000000000e+00 
2.100000000000e+01 3.000000000000e+01 0.000000000000e+00 0.000000000000e+00 0.000000000000e+00 
2.200000000000e+01 3.000000000000e+01 0.000000000000e+00 0.000000000000e+00 0.000000000000e+00 
2.300000000000e+01 3.000000000000e+01 0.000000000000e+00 0.000000000000e+00 0.000000000000e+00 
2.400000000000e+01 3.000000000000e+01 0.000000000000e+00 0.000000000000e+00 0.000000000000e+00 
2.500000000000e+01 3.000000000000e+01 0.000000000000e+00 0.000000000000e+00 0.000000000000e+00 
2.600000000000e+01 3.000000000000e+01 0.000000000000e+00 0.000000000000e+00 0.000000000000e+00 
2.700000000000e+01 3.000000000000e+01 0.000000000000e+00 0.000000000000e+00 0.000000000000e+00 
2.800000000000e+01 3.000000000000e+01 0.000000000000e+00 0.000000000000e+00 0.000000000000e+00 
2.900000000000e+01 3.000000000000e+01 0.000000000000e+00 0.000000000000e+00 0.000000000000e+00 
3.000000000000e+01 3.000000000000e+01 0.000000000000e+00 0.000000000000e+00 0.000000000000e+00 
 TITLE = "Profiles along polylines"
 VARIABLES = "DIST" "HEAD" "VELOCITY_X1" "VELOCITY_Y1" "VELOCITY_Z1" 
 ZONE T="TIME=1.797693134862e+308"
0.000000000000e+00 3.054571653610e+01 5.557912859512e-10 -5.557906360561e-10 0.000000000000e+00 
1.000000000000e+00 3.054571708888e+01 2.947637657031e-10 -8.505543022935e-10 0.000000000000e+00 
2.000000000000e+00 3.054573585482e+01 2.098535464139e-11 -1.166303321347e-09 0.000000000000e+00 
3.000000000000e+00 3.054581556668e+01 5.216256758625e-12 -1.192504891910e-09 0.000000000000e+00 
4.000000000000e+00 3.054611665680e+01 1.707264067814e-11 -1.214793845490e-09 0.000000000000e+00 
5.000000000000e+00 3.054613797241e+01 1.687842736942e-11 -1.248744356354e-09 0.000000000000e+00 
6.000000000000e+00 3.054652446546e+01 1.341681778359e-11 -1.279038889261e-09 0.000000000000e+00 
7.000000000000e+00 3.054655301664e+01 2.525506506104e-11 -1.317710680557e-09 0.000000000000e+00 
8.000000000000e+00 3.054658214434e+01 1.015108305810e-10 -1.444476484586e-09 0.000000000000e+00 
9.000000000000e+00 3.054658695802e+01 1.133985647262e-10 -1.659385376711e-09 0.000000000000e+00 
1.000000000000e+01 3.054660685089e+01 1.822212391543e-10 -1.955005266597e-09 0.000000000000e+00 
1.100000000000e+01 3.054661059931e+01 1.637372357117e-10 -2.300960987819e-09 0.000000000000e+00 
1.200000000000e+01 3.054672144127e+01 1.201912098495e-11 -2.476713989328e-09 0.000000000000e+00 
1.300000000000e+01 3.054683856630e+01 9.970890753819e-12 -2.498703748246e-09 0.000000000000e+00 
1.400000000000e+01 3.054700779567e+01 3.790569796508e-10 -2.887757582274e-09 0.000000000000e+00 
1.500000000000e+01 3.054701020423e+01 5.921244933033e-10 -3.858758990586e-09 0.000000000000e+00 
1.600000000000e+01 3.054701587156e+01 2.172052828891e-10 -4.667696059316e-09 0.000000000000e+00 
1.700000000000e+01 3.057353992335e+01 8.599771303048e-13 -4.885574801626e-09 0.000000000000e+00 
1.800000000000e+01 3.057520925863e+01 3.906410465409e-12 -4.890341146274e-09 0.000000000000e+00 
1.900000000000e+01 3.057564600426e+01 3.523565433895e-12 -4.897770920887e-09 0.000000000000e+00 
2.000000000000e+01 3.057882456683e+01 1.304995364311e-12 -4.902599275811e-09 0.000000000000e+00 
2.100000000000e+01 3.058036692421e+01 5.585656544238e-12 -4.909489894141e-09 0.000000000000e+00 
2.200000000000e+01 3.058065554583e+01 7.781653665457e-12 -4.922856884565e-09 0.000000000000e+00 
2.300000000000e+01 3.058109877537e+01 9.667441520764e-12 -4.940305488298e-09 0.000000000000e+00 
2.400000000000e+01 3.058130630112e+01 6.817486754692e-12 -4.956789811555e-09 0.000000000000e+00 
2.500000000000e+01 3.058741156455e+01 1.919578926064e-11 -4.982802656243e-09 0.000000000000e+00 
2.600000000000e+01 3.058748444010e+01 1.535774021910e-10 -5.155575729722e-09 0.000000000000e+00 
2.700000000000e+01 3.058749534171e+01 1.748747106008e-10 -5.484017859296e-09 0.000000000000e+00 
2.800000000000e+01 3.058753418540e+01 4.064218945135e-11 -5.699520995112e-09 0.000000000000e+00 
2.900000000000e+01 3.059176389711e+01 7.550532131295e-12 -5.747709934716e-09 0.000000000000e+00 
3.000000000000e+01 3.059198558863e+01 1.435124979043e-11 -5.755260580835e-09 0.000000000000e+00 
