VARIABLES = "X","Y","Z",VELOCITY1_X,VELOCITY1_Y,VELOCITY1_Z
ZONE T="0.000000000000e+00s", 
7.490000000000e+02 0.000000000000e+00 5.000000000000e-01 0.000000000000e+00 0.000000000000e+00 0.000000000000e+00
7.500000000000e+02 0.000000000000e+00 5.000000000000e-01 0.000000000000e+00 0.000000000000e+00 0.000000000000e+00
7.490000000000e+02 0.000000000000e+00 1.500000000000e+00 0.000000000000e+00 0.000000000000e+00 0.000000000000e+00
7.500000000000e+02 0.000000000000e+00 1.500000000000e+00 0.000000000000e+00 0.000000000000e+00 0.000000000000e+00
7.490000000000e+02 0.000000000000e+00 2.500000000000e+00 0.000000000000e+00 0.000000000000e+00 0.000000000000e+00
7.500000000000e+02 0.000000000000e+00 2.500000000000e+00 0.000000000000e+00 0.000000000000e+00 0.000000000000e+00
7.490000000000e+02 0.000000000000e+00 3.500000000000e+00 0.000000000000e+00 0.000000000000e+00 0.000000000000e+00
7.500000000000e+02 0.000000000000e+00 3.500000000000e+00 0.000000000000e+00 0.000000000000e+00 0.000000000000e+00
7.490000000000e+02 0.000000000000e+00 4.500000000000e+00 0.000000000000e+00 0.000000000000e+00 0.000000000000e+00
7.500000000000e+02 0.000000000000e+00 4.500000000000e+00 0.000000000000e+00 0.000000000000e+00 0.000000000000e+00
7.490000000000e+02 0.000000000000e+00 5.500000000000e+00 0.000000000000e+00 0.000000000000e+00 0.000000000000e+00
7.500000000000e+02 0.000000000000e+00 5.500000000000e+00 0.000000000000e+00 0.000000000000e+00 0.000000000000e+00
7.490000000000e+02 0.000000000000e+00 6.500000000000e+00 0.000000000000e+00 0.000000000000e+00 0.000000000000e+00
7.500000000000e+02 0.000000000000e+00 6.500000000000e+00 0.000000000000e+00 0.000000000000e+00 0.000000000000e+00
7.490000000000e+02 0.000000000000e+00 7.500000000000e+00 0.000000000000e+00 0.000000000000e+00 0.000000000000e+00
7.500000000000e+02 0.000000000000e+00 7.500000000000e+00 0.000000000000e+00 0.000000000000e+00 0.000000000000e+00
7.490000000000e+02 0.000000000000e+00 8.500000000000e+00 0.000000000000e+00 0.000000000000e+00 0.000000000000e+00
7.500000000000e+02 0.000000000000e+00 8.500000000000e+00 0.000000000000e+00 0.000000000000e+00 0.000000000000e+00
7.490000000000e+02 0.000000000000e+00 9.500000000000e+00 0.000000000000e+00 0.000000000000e+00 0.000000000000e+00
7.500000000000e+02 0.000000000000e+00 9.500000000000e+00 0.000000000000e+00 0.000000000000e+00 0.000000000000e+00
7.490000000000e+02 0.000000000000e+00 1.050000000000e+01 0.000000000000e+00 0.000000000000e+00 0.000000000000e+00
7.500000000000e+02 0.000000000000e+00 1.050000000000e+01 0.000000000000e+00 0.000000000000e+00 0.000000000000e+00
7.490000000000e+02 0.000000000000e+00 1.150000000000e+01 0.000000000000e+00 0.000000000000e+00 0.000000000000e+00
7.500000000000e+02 0.000000000000e+00 1.150000000000e+01 0.000000000000e+00 0.000000000000e+00 0.000000000000e+00
7.490000000000e+02 0.000000000000e+00 1.250000000000e+01 0.000000000000e+00 0.000000000000e+00 0.000000000000e+00
7.500000000000e+02 0.000000000000e+00 1.250000000000e+01 0.000000000000e+00 0.000000000000e+00 0.000000000000e+00
7.490000000000e+02 0.000000000000e+00 1.350000000000e+01 0.000000000000e+00 0.000000000000e+00 0.000000000000e+00
7.500000000000e+02 0.000000000000e+00 1.350000000000e+01 0.000000000000e+00 0.000000000000e+00 0.000000000000e+00
7.490000000000e+02 0.000000000000e+00 1.450000000000e+01 0.000000000000e+00 0.000000000000e+00 0.000000000000e+00
7.500000000000e+02 0.000000000000e+00 1.450000000000e+01 0.000000000000e+00 0.000000000000e+00 0.000000000000e+00
7.490000000000e+02 0.000000000000e+00 1.550000000000e+01 0.000000000000e+00 0.000000000000e+00 0.000000000000e+00
7.500000000000e+02 0.000000000000e+00 1.550000000000e+01 0.000000000000e+00 0.000000000000e+00 0.000000000000e+00
7.490000000000e+02 0.000000000000e+00 1.650000000000e+01 0.000000000000e+00 0.000000000000e+00 0.000000000000e+00
7.500000000000e+02 0.000000000000e+00 1.650000000000e+01 0.000000000000e+00 0.000000000000e+00 0.000000000000e+00
7.490000000000e+02 0.000000000000e+00 1.750000000000e+01 0.000000000000e+00 0.000000000000e+00 0.000000000000e+00
7.500000000000e+02 0.000000000000e+00 1.750000000000e+01 0.000000000000e+00 0.000000000000e+00 0.000000000000e+00
7.490000000000e+02 0.000000000000e+00 1.850000000000e+01 0.000000000000e+00 0.000000000000e+00 0.000000000000e+00
7.500000000000e+02 0.000000000000e+00 1.850000000000e+01 0.000000000000e+00 0.000000000000e+00 0.000000000000e+00
7.490000000000e+02 0.000000000000e+00 1.950000000000e+01 0.000000000000e+00 0.000000000000e+00 0.000000000000e+00
7.500000000000e+02 0.000000000000e+00 1.950000000000e+01 0.000000000000e+00 0.000000000000e+00 0.000000000000e+00
7.490000000000e+02 0.000000000000e+00 2.050000000000e+01 0.000000000000e+00 0.000000000000e+00 0.000000000000e+00
7.500000000000e+02 0.000000000000e+00 2.050000000000e+01 0.000000000000e+00 0.000000000000e+00 0.000000000000e+00
7.490000000000e+02 0.000000000000e+00 2.150000000000e+01 0.000000000000e+00 0.000000000000e+00 0.000000000000e+00
7.500000000000e+02 0.000000000000e+00 2.150000000000e+01 0.000000000000e+00 0.000000000000e+00 0.000000000000e+00
7.490000000000e+02 0.000000000000e+00 2.250000000000e+01 0.000000000000e+00 0.000000000000e+00 0.000000000000e+00
7.500000000000e+02 0.000000000000e+00 2.250000000000e+01 0.000000000000e+00 0.000000000000e+00 0.000000000000e+00
7.490000000000e+02 0.000000000000e+00 2.350000000000e+01 0.000000000000e+00 0.000000000000e+00 0.000000000000e+00
7.500000000000e+02 0.000000000000e+00 2.350000000000e+01 0.000000000000e+00 0.000000000000e+00 0.000000000000e+00
7.490000000000e+02 0.000000000000e+00 2.450000000000e+01 0.000000000000e+00 0.000000000000e+00 0.000000000000e+00
7.500000000000e+02 0.000000000000e+00 2.450000000000e+01 0.000000000000e+00 0.000000000000e+00 0.000000000000e+00
7.490000000000e+02 0.000000000000e+00 2.550000000000e+01 0.000000000000e+00 0.000000000000e+00 0.000000000000e+00
7.500000000000e+02 0.000000000000e+00 2.550000000000e+01 0.000000000000e+00 0.000000000000e+00 0.000000000000e+00
7.490000000000e+02 0.000000000000e+00 2.650000000000e+01 0.000000000000e+00 0.000000000000e+00 0.000000000000e+00
7.500000000000e+02 0.000000000000e+00 2.650000000000e+01 0.000000000000e+00 0.000000000000e+00 0.000000000000e+00
7.490000000000e+02 0.000000000000e+00 2.750000000000e+01 0.000000000000e+00 0.000000000000e+00 0.000000000000e+00
7.500000000000e+02 0.000000000000e+00 2.750000000000e+01 0.000000000000e+00 0.000000000000e+00 0.000000000000e+00
7.490000000000e+02 0.000000000000e+00 2.850000000000e+01 0.000000000000e+00 0.000000000000e+00 0.000000000000e+00
7.500000000000e+02 0.000000000000e+00 2.850000000000e+01 0.000000000000e+00 0.000000000000e+00 0.000000000000e+00
7.490000000000e+02 0.000000000000e+00 2.950000000000e+01 0.000000000000e+00 0.000000000000e+00 0.000000000000e+00
7.500000000000e+02 0.000000000000e+00 2.950000000000e+01 0.000000000000e+00 0.000000000000e+00 0.000000000000e+00
VARIABLES = "X","Y","Z",VELOCITY1_X,VELOCITY1_Y,VELOCITY1_Z
ZONE T="1.797693134862e+308s", 
7.490000000000e+02 0.000000000000e+00 5.000000000000e-01 8.298092229110e-07 -5.335017056835e-10 0.000000000000e+00
7.500000000000e+02 0.000000000000e+00 5.000000000000e-01 8.308756980675e-07 -5.331985495874e-10 0.000000000000e+00
7.490000000000e+02 0.000000000000e+00 1.500000000000e+00 5.037067460250e-08 -1.099369291395e-09 0.000000000000e+00
7.500000000000e+02 0.000000000000e+00 1.500000000000e+00 5.043541232570e-08 -1.098745823055e-09 0.000000000000e+00
7.490000000000e+02 0.000000000000e+00 2.500000000000e+00 1.229313603681e-08 -1.139661363084e-09 0.000000000000e+00
7.500000000000e+02 0.000000000000e+00 2.500000000000e+00 1.230893804607e-08 -1.139015120420e-09 0.000000000000e+00
7.490000000000e+02 0.000000000000e+00 3.500000000000e+00 3.283359641542e-09 -1.149682225738e-09 0.000000000000e+00
7.500000000000e+02 0.000000000000e+00 3.500000000000e+00 3.287582957358e-09 -1.149030389268e-09 0.000000000000e+00
7.490000000000e+02 0.000000000000e+00 4.500000000000e+00 4.770920353497e-08 -1.182548003392e-09 0.000000000000e+00
7.500000000000e+02 0.000000000000e+00 4.500000000000e+00 4.777067471854e-08 -1.181878770037e-09 0.000000000000e+00
7.490000000000e+02 0.000000000000e+00 5.500000000000e+00 2.703438460308e-09 -1.215043200089e-09 0.000000000000e+00
7.500000000000e+02 0.000000000000e+00 5.500000000000e+00 2.706923079633e-09 -1.214356851871e-09 0.000000000000e+00
7.490000000000e+02 0.000000000000e+00 6.500000000000e+00 3.738043175611e-08 -1.240943016887e-09 0.000000000000e+00
7.500000000000e+02 0.000000000000e+00 6.500000000000e+00 3.742871758540e-08 -1.240243961024e-09 0.000000000000e+00
7.490000000000e+02 0.000000000000e+00 7.500000000000e+00 3.807322253361e-08 -1.289703979693e-09 0.000000000000e+00
7.500000000000e+02 0.000000000000e+00 7.500000000000e+00 3.812241198849e-08 -1.288981198923e-09 0.000000000000e+00
7.490000000000e+02 0.000000000000e+00 8.500000000000e+00 2.652142438090e-07 -1.485736518601e-09 0.000000000000e+00
7.500000000000e+02 0.000000000000e+00 8.500000000000e+00 2.655569483095e-07 -1.484918756876e-09 0.000000000000e+00
7.490000000000e+02 0.000000000000e+00 9.500000000000e+00 7.359159845634e-08 -1.704727809599e-09 0.000000000000e+00
7.500000000000e+02 0.000000000000e+00 9.500000000000e+00 7.368669577610e-08 -1.703804206652e-09 0.000000000000e+00
7.490000000000e+02 0.000000000000e+00 1.050000000000e+01 4.708452698297e-07 -2.056681001809e-09 0.000000000000e+00
7.500000000000e+02 0.000000000000e+00 1.050000000000e+01 4.714537763364e-07 -2.055587526082e-09 0.000000000000e+00
7.490000000000e+02 0.000000000000e+00 1.150000000000e+01 1.836277051838e-08 -2.372930188529e-09 0.000000000000e+00
7.500000000000e+02 0.000000000000e+00 1.150000000000e+01 1.838650420075e-08 -2.371684587329e-09 0.000000000000e+00
7.490000000000e+02 0.000000000000e+00 1.250000000000e+01 1.754839665887e-08 -2.396160755791e-09 0.000000000000e+00
7.500000000000e+02 0.000000000000e+00 1.250000000000e+01 1.757109245074e-08 -2.394904182109e-09 0.000000000000e+00
7.490000000000e+02 0.000000000000e+00 1.350000000000e+01 1.224362420651e-08 -2.415445898834e-09 0.000000000000e+00
7.500000000000e+02 0.000000000000e+00 1.350000000000e+01 1.225947048165e-08 -2.414180417373e-09 0.000000000000e+00
7.490000000000e+02 0.000000000000e+00 1.450000000000e+01 1.120343572069e-06 -3.149291502386e-09 0.000000000000e+00
7.500000000000e+02 0.000000000000e+00 1.450000000000e+01 1.121794834130e-06 -3.147697692256e-09 0.000000000000e+00
7.490000000000e+02 0.000000000000e+00 1.550000000000e+01 6.486785480160e-07 -4.295491373380e-09 0.000000000000e+00
7.500000000000e+02 0.000000000000e+00 1.550000000000e+01 6.495188410028e-07 -4.293387166008e-09 0.000000000000e+00
7.490000000000e+02 0.000000000000e+00 1.650000000000e+01 1.523765718862e-10 -4.715900277333e-09 0.000000000000e+00
7.500000000000e+02 0.000000000000e+00 1.650000000000e+01 1.525771315867e-10 -4.713608581936e-09 0.000000000000e+00
7.490000000000e+02 0.000000000000e+00 1.750000000000e+01 2.454490853891e-09 -4.717824807660e-09 0.000000000000e+00
7.500000000000e+02 0.000000000000e+00 1.750000000000e+01 2.458120266737e-09 -4.715535888076e-09 0.000000000000e+00
7.490000000000e+02 0.000000000000e+00 1.850000000000e+01 9.404608551983e-09 -4.726640985116e-09 0.000000000000e+00
7.500000000000e+02 0.000000000000e+00 1.850000000000e+01 9.418611992964e-09 -4.724365684807e-09 0.000000000000e+00
7.490000000000e+02 0.000000000000e+00 1.950000000000e+01 1.294618727604e-09 -4.734610271350e-09 0.000000000000e+00
7.500000000000e+02 0.000000000000e+00 1.950000000000e+01 1.296552842509e-09 -4.732347496201e-09 0.000000000000e+00
7.490000000000e+02 0.000000000000e+00 2.050000000000e+01 2.673819422563e-09 -4.737608272966e-09 0.000000000000e+00
7.500000000000e+02 0.000000000000e+00 2.050000000000e+01 2.677867026381e-09 -4.735350764189e-09 0.000000000000e+00
7.490000000000e+02 0.000000000000e+00 2.150000000000e+01 1.433206561632e-08 -4.750536520079e-09 0.000000000000e+00
7.500000000000e+02 0.000000000000e+00 2.150000000000e+01 1.435389361527e-08 -4.748302852995e-09 0.000000000000e+00
7.490000000000e+02 0.000000000000e+00 2.250000000000e+01 9.363826201168e-09 -4.768571694755e-09 0.000000000000e+00
7.500000000000e+02 0.000000000000e+00 2.250000000000e+01 9.378106045060e-09 -4.766371594661e-09 0.000000000000e+00
7.490000000000e+02 0.000000000000e+00 2.350000000000e+01 2.008192542581e-08 -4.791024168014e-09 0.000000000000e+00
7.500000000000e+02 0.000000000000e+00 2.350000000000e+01 2.011260366725e-08 -4.788866388587e-09 0.000000000000e+00
7.490000000000e+02 0.000000000000e+00 2.450000000000e+01 6.847952303449e-10 -4.806872182012e-09 0.000000000000e+00
7.500000000000e+02 0.000000000000e+00 2.450000000000e+01 6.858450304567e-10 -4.804744463158e-09 0.000000000000e+00
7.490000000000e+02 0.000000000000e+00 2.550000000000e+01 5.797289196364e-08 -4.852714036039e-09 0.000000000000e+00
7.500000000000e+02 0.000000000000e+00 2.550000000000e+01 5.806368427424e-08 -4.850687411390e-09 0.000000000000e+00
7.490000000000e+02 0.000000000000e+00 2.650000000000e+01 4.113500762466e-07 -5.219582903207e-09 0.000000000000e+00
7.500000000000e+02 0.000000000000e+00 2.650000000000e+01 4.119944530970e-07 -5.218366659630e-09 0.000000000000e+00
7.490000000000e+02 0.000000000000e+00 2.750000000000e+01 1.230519292271e-07 -5.637323208379e-09 0.000000000000e+00
7.500000000000e+02 0.000000000000e+00 2.750000000000e+01 1.232446934245e-07 -5.637030494697e-09 0.000000000000e+00
7.490000000000e+02 0.000000000000e+00 2.850000000000e+01 1.146292824521e-09 -5.734410677318e-09 0.000000000000e+00
7.500000000000e+02 0.000000000000e+00 2.850000000000e+01 1.148088657398e-09 -5.734332649028e-09 0.000000000000e+00
7.490000000000e+02 0.000000000000e+00 2.950000000000e+01 2.192929071256e-08 -5.752458925503e-09 0.000000000000e+00
7.500000000000e+02 0.000000000000e+00 2.950000000000e+01 2.196366203443e-08 -5.752420895135e-09 0.000000000000e+00
