VARIABLES = "X","Y","Z",VELOCITY1_X,VELOCITY1_Y,VELOCITY1_Z
ZONE T="0.000000000000e+00s", 
4.900000000000e+01 0.000000000000e+00 5.000000000000e-01 0.000000000000e+00 0.000000000000e+00 0.000000000000e+00
5.000000000000e+01 0.000000000000e+00 5.000000000000e-01 0.000000000000e+00 0.000000000000e+00 0.000000000000e+00
4.900000000000e+01 0.000000000000e+00 1.500000000000e+00 0.000000000000e+00 0.000000000000e+00 0.000000000000e+00
5.000000000000e+01 0.000000000000e+00 1.500000000000e+00 0.000000000000e+00 0.000000000000e+00 0.000000000000e+00
4.900000000000e+01 0.000000000000e+00 2.500000000000e+00 0.000000000000e+00 0.000000000000e+00 0.000000000000e+00
5.000000000000e+01 0.000000000000e+00 2.500000000000e+00 0.000000000000e+00 0.000000000000e+00 0.000000000000e+00
4.900000000000e+01 0.000000000000e+00 3.500000000000e+00 0.000000000000e+00 0.000000000000e+00 0.000000000000e+00
5.000000000000e+01 0.000000000000e+00 3.500000000000e+00 0.000000000000e+00 0.000000000000e+00 0.000000000000e+00
4.900000000000e+01 0.000000000000e+00 4.500000000000e+00 0.000000000000e+00 0.000000000000e+00 0.000000000000e+00
5.000000000000e+01 0.000000000000e+00 4.500000000000e+00 0.000000000000e+00 0.000000000000e+00 0.000000000000e+00
4.900000000000e+01 0.000000000000e+00 5.500000000000e+00 0.000000000000e+00 0.000000000000e+00 0.000000000000e+00
5.000000000000e+01 0.000000000000e+00 5.500000000000e+00 0.000000000000e+00 0.000000000000e+00 0.000000000000e+00
4.900000000000e+01 0.000000000000e+00 6.500000000000e+00 0.000000000000e+00 0.000000000000e+00 0.000000000000e+00
5.000000000000e+01 0.000000000000e+00 6.500000000000e+00 0.000000000000e+00 0.000000000000e+00 0.000000000000e+00
4.900000000000e+01 0.000000000000e+00 7.500000000000e+00 0.000000000000e+00 0.000000000000e+00 0.000000000000e+00
5.000000000000e+01 0.000000000000e+00 7.500000000000e+00 0.000000000000e+00 0.000000000000e+00 0.000000000000e+00
4.900000000000e+01 0.000000000000e+00 8.500000000000e+00 0.000000000000e+00 0.000000000000e+00 0.000000000000e+00
5.000000000000e+01 0.000000000000e+00 8.500000000000e+00 0.000000000000e+00 0.000000000000e+00 0.000000000000e+00
4.900000000000e+01 0.000000000000e+00 9.500000000000e+00 0.000000000000e+00 0.000000000000e+00 0.000000000000e+00
5.000000000000e+01 0.000000000000e+00 9.500000000000e+00 0.000000000000e+00 0.000000000000e+00 0.000000000000e+00
4.900000000000e+01 0.000000000000e+00 1.050000000000e+01 0.000000000000e+00 0.000000000000e+00 0.000000000000e+00
5.000000000000e+01 0.000000000000e+00 1.050000000000e+01 0.000000000000e+00 0.000000000000e+00 0.000000000000e+00
4.900000000000e+01 0.000000000000e+00 1.150000000000e+01 0.000000000000e+00 0.000000000000e+00 0.000000000000e+00
5.000000000000e+01 0.000000000000e+00 1.150000000000e+01 0.000000000000e+00 0.000000000000e+00 0.000000000000e+00
4.900000000000e+01 0.000000000000e+00 1.250000000000e+01 0.000000000000e+00 0.000000000000e+00 0.000000000000e+00
5.000000000000e+01 0.000000000000e+00 1.250000000000e+01 0.000000000000e+00 0.000000000000e+00 0.000000000000e+00
4.900000000000e+01 0.000000000000e+00 1.350000000000e+01 0.000000000000e+00 0.000000000000e+00 0.000000000000e+00
5.000000000000e+01 0.000000000000e+00 1.350000000000e+01 0.000000000000e+00 0.000000000000e+00 0.000000000000e+00
4.900000000000e+01 0.000000000000e+00 1.450000000000e+01 0.000000000000e+00 0.000000000000e+00 0.000000000000e+00
5.000000000000e+01 0.000000000000e+00 1.450000000000e+01 0.000000000000e+00 0.000000000000e+00 0.000000000000e+00
4.900000000000e+01 0.000000000000e+00 1.550000000000e+01 0.000000000000e+00 0.000000000000e+00 0.000000000000e+00
5.000000000000e+01 0.000000000000e+00 1.550000000000e+01 0.000000000000e+00 0.000000000000e+00 0.000000000000e+00
4.900000000000e+01 0.000000000000e+00 1.650000000000e+01 0.000000000000e+00 0.000000000000e+00 0.000000000000e+00
5.000000000000e+01 0.000000000000e+00 1.650000000000e+01 0.000000000000e+00 0.000000000000e+00 0.000000000000e+00
4.900000000000e+01 0.000000000000e+00 1.750000000000e+01 0.000000000000e+00 0.000000000000e+00 0.000000000000e+00
5.000000000000e+01 0.000000000000e+00 1.750000000000e+01 0.000000000000e+00 0.000000000000e+00 0.000000000000e+00
4.900000000000e+01 0.000000000000e+00 1.850000000000e+01 0.000000000000e+00 0.000000000000e+00 0.000000000000e+00
5.000000000000e+01 0.000000000000e+00 1.850000000000e+01 0.000000000000e+00 0.000000000000e+00 0.000000000000e+00
4.900000000000e+01 0.000000000000e+00 1.950000000000e+01 0.000000000000e+00 0.000000000000e+00 0.000000000000e+00
5.000000000000e+01 0.000000000000e+00 1.950000000000e+01 0.000000000000e+00 0.000000000000e+00 0.000000000000e+00
4.900000000000e+01 0.000000000000e+00 2.050000000000e+01 0.000000000000e+00 0.000000000000e+00 0.000000000000e+00
5.000000000000e+01 0.000000000000e+00 2.050000000000e+01 0.000000000000e+00 0.000000000000e+00 0.000000000000e+00
4.900000000000e+01 0.000000000000e+00 2.150000000000e+01 0.000000000000e+00 0.000000000000e+00 0.000000000000e+00
5.000000000000e+01 0.000000000000e+00 2.150000000000e+01 0.000000000000e+00 0.000000000000e+00 0.000000000000e+00
4.900000000000e+01 0.000000000000e+00 2.250000000000e+01 0.000000000000e+00 0.000000000000e+00 0.000000000000e+00
5.000000000000e+01 0.000000000000e+00 2.250000000000e+01 0.000000000000e+00 0.000000000000e+00 0.000000000000e+00
4.900000000000e+01 0.000000000000e+00 2.350000000000e+01 0.000000000000e+00 0.000000000000e+00 0.000000000000e+00
5.000000000000e+01 0.000000000000e+00 2.350000000000e+01 0.000000000000e+00 0.000000000000e+00 0.000000000000e+00
4.900000000000e+01 0.000000000000e+00 2.450000000000e+01 0.000000000000e+00 0.000000000000e+00 0.000000000000e+00
5.000000000000e+01 0.000000000000e+00 2.450000000000e+01 0.000000000000e+00 0.000000000000e+00 0.000000000000e+00
4.900000000000e+01 0.000000000000e+00 2.550000000000e+01 0.000000000000e+00 0.000000000000e+00 0.000000000000e+00
5.000000000000e+01 0.000000000000e+00 2.550000000000e+01 0.000000000000e+00 0.000000000000e+00 0.000000000000e+00
4.900000000000e+01 0.000000000000e+00 2.650000000000e+01 0.000000000000e+00 0.000000000000e+00 0.000000000000e+00
5.000000000000e+01 0.000000000000e+00 2.650000000000e+01 0.000000000000e+00 0.000000000000e+00 0.000000000000e+00
4.900000000000e+01 0.000000000000e+00 2.750000000000e+01 0.000000000000e+00 0.000000000000e+00 0.000000000000e+00
5.000000000000e+01 0.000000000000e+00 2.750000000000e+01 0.000000000000e+00 0.000000000000e+00 0.000000000000e+00
4.900000000000e+01 0.000000000000e+00 2.850000000000e+01 0.000000000000e+00 0.000000000000e+00 0.000000000000e+00
5.000000000000e+01 0.000000000000e+00 2.850000000000e+01 0.000000000000e+00 0.000000000000e+00 0.000000000000e+00
4.900000000000e+01 0.000000000000e+00 2.950000000000e+01 0.000000000000e+00 0.000000000000e+00 0.000000000000e+00
5.000000000000e+01 0.000000000000e+00 2.950000000000e+01 0.000000000000e+00 0.000000000000e+00 0.000000000000e+00
VARIABLES = "X","Y","Z",VELOCITY1_X,VELOCITY1_Y,VELOCITY1_Z
ZONE T="1.797693134862e+308s", 
4.900000000000e+01 0.000000000000e+00 5.000000000000e-01 5.502341908576e-08 -5.557832804644e-10 0.000000000000e+00
5.000000000000e+01 0.000000000000e+00 5.000000000000e-01 5.613497902545e-08 -5.557831733029e-10 0.000000000000e+00
4.900000000000e+01 0.000000000000e+00 1.500000000000e+00 3.339998999388e-09 -1.145316050096e-09 0.000000000000e+00
5.000000000000e+01 0.000000000000e+00 1.500000000000e+00 3.407472260149e-09 -1.145316168050e-09 0.000000000000e+00
4.900000000000e+01 0.000000000000e+00 2.500000000000e+00 8.151244381193e-10 -1.187287208513e-09 0.000000000000e+00
5.000000000000e+01 0.000000000000e+00 2.500000000000e+00 8.315912822432e-10 -1.187287133689e-09 0.000000000000e+00
4.900000000000e+01 0.000000000000e+00 3.500000000000e+00 2.176956767054e-10 -1.197719632087e-09 0.000000000000e+00
5.000000000000e+01 0.000000000000e+00 3.500000000000e+00 2.220934901158e-10 -1.197719556718e-09 0.000000000000e+00
4.900000000000e+01 0.000000000000e+00 4.500000000000e+00 3.162689667031e-09 -1.231864523042e-09 0.000000000000e+00
5.000000000000e+01 0.000000000000e+00 4.500000000000e+00 3.226581633550e-09 -1.231864399851e-09 0.000000000000e+00
4.900000000000e+01 0.000000000000e+00 5.500000000000e+00 1.792062390649e-10 -1.265620577114e-09 0.000000000000e+00
5.000000000000e+01 0.000000000000e+00 5.500000000000e+00 1.828265238092e-10 -1.265620526100e-09 0.000000000000e+00
4.900000000000e+01 0.000000000000e+00 6.500000000000e+00 2.477322097410e-09 -1.292453907146e-09 0.000000000000e+00
5.000000000000e+01 0.000000000000e+00 6.500000000000e+00 2.527368344857e-09 -1.292453860829e-09 0.000000000000e+00
4.900000000000e+01 0.000000000000e+00 7.500000000000e+00 2.523188433132e-09 -1.342963838926e-09 0.000000000000e+00
5.000000000000e+01 0.000000000000e+00 7.500000000000e+00 2.574161244536e-09 -1.342963821400e-09 0.000000000000e+00
4.900000000000e+01 0.000000000000e+00 8.500000000000e+00 1.757597555564e-08 -1.545983763708e-09 0.000000000000e+00
5.000000000000e+01 0.000000000000e+00 8.500000000000e+00 1.793104114948e-08 -1.545983775119e-09 0.000000000000e+00
4.900000000000e+01 0.000000000000e+00 9.500000000000e+00 4.876958182177e-09 -1.772780472565e-09 0.000000000000e+00
5.000000000000e+01 0.000000000000e+00 9.500000000000e+00 4.975481293364e-09 -1.772780433939e-09 0.000000000000e+00
4.900000000000e+01 0.000000000000e+00 1.050000000000e+01 3.120283596535e-08 -2.137219462623e-09 0.000000000000e+00
5.000000000000e+01 0.000000000000e+00 1.050000000000e+01 3.183318800245e-08 -2.137219478828e-09 0.000000000000e+00
4.900000000000e+01 0.000000000000e+00 1.150000000000e+01 1.216885894811e-09 -2.464690721657e-09 0.000000000000e+00
5.000000000000e+01 0.000000000000e+00 1.150000000000e+01 1.241469136928e-09 -2.464690635153e-09 0.000000000000e+00
4.900000000000e+01 0.000000000000e+00 1.250000000000e+01 1.162838835092e-09 -2.488728135127e-09 0.000000000000e+00
5.000000000000e+01 0.000000000000e+00 1.250000000000e+01 1.186330190805e-09 -2.488728048238e-09 0.000000000000e+00
4.900000000000e+01 0.000000000000e+00 1.350000000000e+01 8.112589675422e-10 -2.508668326809e-09 0.000000000000e+00
5.000000000000e+01 0.000000000000e+00 1.350000000000e+01 8.276477523820e-10 -2.508668258027e-09 0.000000000000e+00
4.900000000000e+01 0.000000000000e+00 1.450000000000e+01 7.422683515829e-08 -3.266615583504e-09 0.000000000000e+00
5.000000000000e+01 0.000000000000e+00 1.450000000000e+01 7.572633659510e-08 -3.266618214515e-09 0.000000000000e+00
4.900000000000e+01 0.000000000000e+00 1.550000000000e+01 4.297724093149e-08 -4.450494761782e-09 0.000000000000e+00
5.000000000000e+01 0.000000000000e+00 1.550000000000e+01 4.384545163614e-08 -4.450495478818e-09 0.000000000000e+00
4.900000000000e+01 0.000000000000e+00 1.650000000000e+01 1.007838981523e-11 -4.884710874131e-09 0.000000000000e+00
5.000000000000e+01 0.000000000000e+00 1.650000000000e+01 1.028198975154e-11 -4.884710701067e-09 0.000000000000e+00
4.900000000000e+01 0.000000000000e+00 1.750000000000e+01 1.601942737723e-10 -4.886430778304e-09 0.000000000000e+00
5.000000000000e+01 0.000000000000e+00 1.750000000000e+01 1.634304748072e-10 -4.886430604956e-09 0.000000000000e+00
4.900000000000e+01 0.000000000000e+00 1.850000000000e+01 6.132763860990e-10 -4.894243492551e-09 0.000000000000e+00
5.000000000000e+01 0.000000000000e+00 1.850000000000e+01 6.256656321261e-10 -4.894243308339e-09 0.000000000000e+00
4.900000000000e+01 0.000000000000e+00 1.950000000000e+01 8.438769750705e-11 -4.901290418497e-09 0.000000000000e+00
5.000000000000e+01 0.000000000000e+00 1.950000000000e+01 8.609247625400e-11 -4.901290208199e-09 0.000000000000e+00
4.900000000000e+01 0.000000000000e+00 2.050000000000e+01 1.740031466265e-10 -4.903900369138e-09 0.000000000000e+00
5.000000000000e+01 0.000000000000e+00 2.050000000000e+01 1.775183251860e-10 -4.903900154168e-09 0.000000000000e+00
4.900000000000e+01 0.000000000000e+00 2.150000000000e+01 9.319700427781e-10 -4.915071559432e-09 0.000000000000e+00
5.000000000000e+01 0.000000000000e+00 2.150000000000e+01 9.507975487112e-10 -4.915071343505e-09 0.000000000000e+00
4.900000000000e+01 0.000000000000e+00 2.250000000000e+01 6.088007372718e-10 -4.930634254743e-09 0.000000000000e+00
5.000000000000e+01 0.000000000000e+00 2.250000000000e+01 6.210996400630e-10 -4.930634053302e-09 0.000000000000e+00
4.900000000000e+01 0.000000000000e+00 2.350000000000e+01 1.305364107678e-09 -4.949968698181e-09 0.000000000000e+00
5.000000000000e+01 0.000000000000e+00 2.350000000000e+01 1.331734884156e-09 -4.949968467264e-09 0.000000000000e+00
4.900000000000e+01 0.000000000000e+00 2.450000000000e+01 4.449324463312e-11 -4.963602990341e-09 0.000000000000e+00
5.000000000000e+01 0.000000000000e+00 2.450000000000e+01 4.539208901361e-11 -4.963602829458e-09 0.000000000000e+00
4.900000000000e+01 0.000000000000e+00 2.550000000000e+01 3.756333655484e-09 -5.001994367895e-09 0.000000000000e+00
5.000000000000e+01 0.000000000000e+00 2.550000000000e+01 3.832218292576e-09 -5.001994154039e-09 0.000000000000e+00
4.900000000000e+01 0.000000000000e+00 2.650000000000e+01 2.665245420802e-08 -5.309145517375e-09 0.000000000000e+00
5.000000000000e+01 0.000000000000e+00 2.650000000000e+01 2.719088124670e-08 -5.309145167875e-09 0.000000000000e+00
4.900000000000e+01 0.000000000000e+00 2.750000000000e+01 7.972835467562e-09 -5.658878751421e-09 0.000000000000e+00
5.000000000000e+01 0.000000000000e+00 2.750000000000e+01 8.133901003573e-09 -5.658878705357e-09 0.000000000000e+00
4.900000000000e+01 0.000000000000e+00 2.850000000000e+01 7.427039160502e-11 -5.740159149757e-09 0.000000000000e+00
5.000000000000e+01 0.000000000000e+00 2.850000000000e+01 7.577078675389e-11 -5.740159141864e-09 0.000000000000e+00
4.900000000000e+01 0.000000000000e+00 2.950000000000e+01 1.420752701729e-09 -5.755260081258e-09 0.000000000000e+00
5.000000000000e+01 0.000000000000e+00 2.950000000000e+01 1.449454503264e-09 -5.755260049531e-09 0.000000000000e+00
