VARIABLES = "X","Y","Z",VELOCITY1_X,VELOCITY1_Y,VELOCITY1_Z
ZONE T="0.000000000000e+00s", 
8.990000000000e+02 0.000000000000e+00 5.000000000000e-01 0.000000000000e+00 0.000000000000e+00 0.000000000000e+00
9.000000000000e+02 0.000000000000e+00 5.000000000000e-01 0.000000000000e+00 0.000000000000e+00 0.000000000000e+00
8.990000000000e+02 0.000000000000e+00 1.500000000000e+00 0.000000000000e+00 0.000000000000e+00 0.000000000000e+00
9.000000000000e+02 0.000000000000e+00 1.500000000000e+00 0.000000000000e+00 0.000000000000e+00 0.000000000000e+00
8.990000000000e+02 0.000000000000e+00 2.500000000000e+00 0.000000000000e+00 0.000000000000e+00 0.000000000000e+00
9.000000000000e+02 0.000000000000e+00 2.500000000000e+00 0.000000000000e+00 0.000000000000e+00 0.000000000000e+00
8.990000000000e+02 0.000000000000e+00 3.500000000000e+00 0.000000000000e+00 0.000000000000e+00 0.000000000000e+00
9.000000000000e+02 0.000000000000e+00 3.500000000000e+00 0.000000000000e+00 0.000000000000e+00 0.000000000000e+00
8.990000000000e+02 0.000000000000e+00 4.500000000000e+00 0.000000000000e+00 0.000000000000e+00 0.000000000000e+00
9.000000000000e+02 0.000000000000e+00 4.500000000000e+00 0.000000000000e+00 0.000000000000e+00 0.000000000000e+00
8.990000000000e+02 0.000000000000e+00 5.500000000000e+00 0.000000000000e+00 0.000000000000e+00 0.000000000000e+00
9.000000000000e+02 0.000000000000e+00 5.500000000000e+00 0.000000000000e+00 0.000000000000e+00 0.000000000000e+00
8.990000000000e+02 0.000000000000e+00 6.500000000000e+00 0.000000000000e+00 0.000000000000e+00 0.000000000000e+00
9.000000000000e+02 0.000000000000e+00 6.500000000000e+00 0.000000000000e+00 0.000000000000e+00 0.000000000000e+00
8.990000000000e+02 0.000000000000e+00 7.500000000000e+00 0.000000000000e+00 0.000000000000e+00 0.000000000000e+00
9.000000000000e+02 0.000000000000e+00 7.500000000000e+00 0.000000000000e+00 0.000000000000e+00 0.000000000000e+00
8.990000000000e+02 0.000000000000e+00 8.500000000000e+00 0.000000000000e+00 0.000000000000e+00 0.000000000000e+00
9.000000000000e+02 0.000000000000e+00 8.500000000000e+00 0.000000000000e+00 0.000000000000e+00 0.000000000000e+00
8.990000000000e+02 0.000000000000e+00 9.500000000000e+00 0.000000000000e+00 0.000000000000e+00 0.000000000000e+00
9.000000000000e+02 0.000000000000e+00 9.500000000000e+00 0.000000000000e+00 0.000000000000e+00 0.000000000000e+00
8.990000000000e+02 0.000000000000e+00 1.050000000000e+01 0.000000000000e+00 0.000000000000e+00 0.000000000000e+00
9.000000000000e+02 0.000000000000e+00 1.050000000000e+01 0.000000000000e+00 0.000000000000e+00 0.000000000000e+00
8.990000000000e+02 0.000000000000e+00 1.150000000000e+01 0.000000000000e+00 0.000000000000e+00 0.000000000000e+00
9.000000000000e+02 0.000000000000e+00 1.150000000000e+01 0.000000000000e+00 0.000000000000e+00 0.000000000000e+00
8.990000000000e+02 0.000000000000e+00 1.250000000000e+01 0.000000000000e+00 0.000000000000e+00 0.000000000000e+00
9.000000000000e+02 0.000000000000e+00 1.250000000000e+01 0.000000000000e+00 0.000000000000e+00 0.000000000000e+00
8.990000000000e+02 0.000000000000e+00 1.350000000000e+01 0.000000000000e+00 0.000000000000e+00 0.000000000000e+00
9.000000000000e+02 0.000000000000e+00 1.350000000000e+01 0.000000000000e+00 0.000000000000e+00 0.000000000000e+00
8.990000000000e+02 0.000000000000e+00 1.450000000000e+01 0.000000000000e+00 0.000000000000e+00 0.000000000000e+00
9.000000000000e+02 0.000000000000e+00 1.450000000000e+01 0.000000000000e+00 0.000000000000e+00 0.000000000000e+00
8.990000000000e+02 0.000000000000e+00 1.550000000000e+01 0.000000000000e+00 0.000000000000e+00 0.000000000000e+00
9.000000000000e+02 0.000000000000e+00 1.550000000000e+01 0.000000000000e+00 0.000000000000e+00 0.000000000000e+00
8.990000000000e+02 0.000000000000e+00 1.650000000000e+01 0.000000000000e+00 0.000000000000e+00 0.000000000000e+00
9.000000000000e+02 0.000000000000e+00 1.650000000000e+01 0.000000000000e+00 0.000000000000e+00 0.000000000000e+00
8.990000000000e+02 0.000000000000e+00 1.750000000000e+01 0.000000000000e+00 0.000000000000e+00 0.000000000000e+00
9.000000000000e+02 0.000000000000e+00 1.750000000000e+01 0.000000000000e+00 0.000000000000e+00 0.000000000000e+00
8.990000000000e+02 0.000000000000e+00 1.850000000000e+01 0.000000000000e+00 0.000000000000e+00 0.000000000000e+00
9.000000000000e+02 0.000000000000e+00 1.850000000000e+01 0.000000000000e+00 0.000000000000e+00 0.000000000000e+00
8.990000000000e+02 0.000000000000e+00 1.950000000000e+01 0.000000000000e+00 0.000000000000e+00 0.000000000000e+00
9.000000000000e+02 0.000000000000e+00 1.950000000000e+01 0.000000000000e+00 0.000000000000e+00 0.000000000000e+00
8.990000000000e+02 0.000000000000e+00 2.050000000000e+01 0.000000000000e+00 0.000000000000e+00 0.000000000000e+00
9.000000000000e+02 0.000000000000e+00 2.050000000000e+01 0.000000000000e+00 0.000000000000e+00 0.000000000000e+00
8.990000000000e+02 0.000000000000e+00 2.150000000000e+01 0.000000000000e+00 0.000000000000e+00 0.000000000000e+00
9.000000000000e+02 0.000000000000e+00 2.150000000000e+01 0.000000000000e+00 0.000000000000e+00 0.000000000000e+00
8.990000000000e+02 0.000000000000e+00 2.250000000000e+01 0.000000000000e+00 0.000000000000e+00 0.000000000000e+00
9.000000000000e+02 0.000000000000e+00 2.250000000000e+01 0.000000000000e+00 0.000000000000e+00 0.000000000000e+00
8.990000000000e+02 0.000000000000e+00 2.350000000000e+01 0.000000000000e+00 0.000000000000e+00 0.000000000000e+00
9.000000000000e+02 0.000000000000e+00 2.350000000000e+01 0.000000000000e+00 0.000000000000e+00 0.000000000000e+00
8.990000000000e+02 0.000000000000e+00 2.450000000000e+01 0.000000000000e+00 0.000000000000e+00 0.000000000000e+00
9.000000000000e+02 0.000000000000e+00 2.450000000000e+01 0.000000000000e+00 0.000000000000e+00 0.000000000000e+00
8.990000000000e+02 0.000000000000e+00 2.550000000000e+01 0.000000000000e+00 0.000000000000e+00 0.000000000000e+00
9.000000000000e+02 0.000000000000e+00 2.550000000000e+01 0.000000000000e+00 0.000000000000e+00 0.000000000000e+00
8.990000000000e+02 0.000000000000e+00 2.650000000000e+01 0.000000000000e+00 0.000000000000e+00 0.000000000000e+00
9.000000000000e+02 0.000000000000e+00 2.650000000000e+01 0.000000000000e+00 0.000000000000e+00 0.000000000000e+00
8.990000000000e+02 0.000000000000e+00 2.750000000000e+01 0.000000000000e+00 0.000000000000e+00 0.000000000000e+00
9.000000000000e+02 0.000000000000e+00 2.750000000000e+01 0.000000000000e+00 0.000000000000e+00 0.000000000000e+00
8.990000000000e+02 0.000000000000e+00 2.850000000000e+01 0.000000000000e+00 0.000000000000e+00 0.000000000000e+00
9.000000000000e+02 0.000000000000e+00 2.850000000000e+01 0.000000000000e+00 0.000000000000e+00 0.000000000000e+00
8.990000000000e+02 0.000000000000e+00 2.950000000000e+01 0.000000000000e+00 0.000000000000e+00 0.000000000000e+00
9.000000000000e+02 0.000000000000e+00 2.950000000000e+01 0.000000000000e+00 0.000000000000e+00 0.000000000000e+00
VARIABLES = "X","Y","Z",VELOCITY1_X,VELOCITY1_Y,VELOCITY1_Z
ZONE T="1.797693134862e+308s", 
8.990000000000e+02 0.000000000000e+00 5.000000000000e-01 9.748338826820e-07 -3.892335634243e-10 0.000000000000e+00
9.000000000000e+02 0.000000000000e+00 5.000000000000e-01 9.756083946673e-07 -3.870273847543e-10 0.000000000000e+00
8.990000000000e+02 0.000000000000e+00 1.500000000000e+00 5.917441949364e-08 -8.021718817899e-10 0.000000000000e+00
9.000000000000e+02 0.000000000000e+00 1.500000000000e+00 5.922144139888e-08 -7.976254635104e-10 0.000000000000e+00
8.990000000000e+02 0.000000000000e+00 2.500000000000e+00 1.444298988026e-08 -8.316047402885e-10 0.000000000000e+00
9.000000000000e+02 0.000000000000e+00 2.500000000000e+00 1.445448460436e-08 -8.268920796667e-10 0.000000000000e+00
8.990000000000e+02 0.000000000000e+00 3.500000000000e+00 3.858945977742e-09 -8.389573252504e-10 0.000000000000e+00
9.000000000000e+02 0.000000000000e+00 3.500000000000e+00 3.862036662487e-09 -8.342037386962e-10 0.000000000000e+00
8.990000000000e+02 0.000000000000e+00 4.500000000000e+00 5.612461208266e-08 -8.634812901665e-10 0.000000000000e+00
9.000000000000e+02 0.000000000000e+00 4.500000000000e+00 5.617029128751e-08 -8.585986049163e-10 0.000000000000e+00
8.990000000000e+02 0.000000000000e+00 5.500000000000e+00 3.180975546849e-09 -8.877614903536e-10 0.000000000000e+00
9.000000000000e+02 0.000000000000e+00 5.500000000000e+00 3.183574057511e-09 -8.827515057191e-10 0.000000000000e+00
8.990000000000e+02 0.000000000000e+00 6.500000000000e+00 4.403529101794e-08 -9.075233756391e-10 0.000000000000e+00
9.000000000000e+02 0.000000000000e+00 6.500000000000e+00 4.407199431706e-08 -9.024171340443e-10 0.000000000000e+00
8.990000000000e+02 0.000000000000e+00 7.500000000000e+00 4.485578387084e-08 -9.447894878725e-10 0.000000000000e+00
9.000000000000e+02 0.000000000000e+00 7.500000000000e+00 4.489323251343e-08 -9.395027551655e-10 0.000000000000e+00
8.990000000000e+02 0.000000000000e+00 8.500000000000e+00 3.124888267526e-07 -1.094832048563e-09 0.000000000000e+00
9.000000000000e+02 0.000000000000e+00 8.500000000000e+00 3.127501081657e-07 -1.088822672096e-09 0.000000000000e+00
8.990000000000e+02 0.000000000000e+00 9.500000000000e+00 8.671122599085e-08 -1.262511474300e-09 0.000000000000e+00
9.000000000000e+02 0.000000000000e+00 9.500000000000e+00 8.678375484638e-08 -1.255695385828e-09 0.000000000000e+00
8.990000000000e+02 0.000000000000e+00 1.050000000000e+01 5.548189934720e-07 -1.532250757287e-09 0.000000000000e+00
9.000000000000e+02 0.000000000000e+00 1.050000000000e+01 5.552835450878e-07 -1.524142066860e-09 0.000000000000e+00
8.990000000000e+02 0.000000000000e+00 1.150000000000e+01 2.163882459382e-08 -1.774708045672e-09 0.000000000000e+00
9.000000000000e+02 0.000000000000e+00 1.150000000000e+01 2.165695911723e-08 -1.765438594991e-09 0.000000000000e+00
8.990000000000e+02 0.000000000000e+00 1.250000000000e+01 2.068665153080e-08 -1.792621715084e-09 0.000000000000e+00
9.000000000000e+02 0.000000000000e+00 1.250000000000e+01 2.070409769141e-08 -1.783268505081e-09 0.000000000000e+00
8.990000000000e+02 0.000000000000e+00 1.350000000000e+01 1.443896204129e-08 -1.807585116612e-09 0.000000000000e+00
9.000000000000e+02 0.000000000000e+00 1.350000000000e+01 1.445122345574e-08 -1.798163693419e-09 0.000000000000e+00
8.990000000000e+02 0.000000000000e+00 1.450000000000e+01 1.321870196201e-06 -2.382000383798e-09 0.000000000000e+00
9.000000000000e+02 0.000000000000e+00 1.450000000000e+01 1.323002136986e-06 -2.370056139235e-09 0.000000000000e+00
8.990000000000e+02 0.000000000000e+00 1.550000000000e+01 7.653690653761e-07 -3.279418626083e-09 0.000000000000e+00
9.000000000000e+02 0.000000000000e+00 1.550000000000e+01 7.660245636766e-07 -3.263535377246e-09 0.000000000000e+00
8.990000000000e+02 0.000000000000e+00 1.650000000000e+01 1.814357944573e-10 -3.608681431212e-09 0.000000000000e+00
9.000000000000e+02 0.000000000000e+00 1.650000000000e+01 1.816160425897e-10 -3.591354815311e-09 0.000000000000e+00
8.990000000000e+02 0.000000000000e+00 1.750000000000e+01 3.129781861273e-09 -3.611946890234e-09 0.000000000000e+00
9.000000000000e+02 0.000000000000e+00 1.750000000000e+01 3.135987677614e-09 -3.594641227943e-09 0.000000000000e+00
8.990000000000e+02 0.000000000000e+00 1.850000000000e+01 1.204245382372e-08 -3.627340447421e-09 0.000000000000e+00
9.000000000000e+02 0.000000000000e+00 1.850000000000e+01 1.206703534241e-08 -3.610137581248e-09 0.000000000000e+00
8.990000000000e+02 0.000000000000e+00 1.950000000000e+01 1.661080102850e-09 -3.641356939954e-09 0.000000000000e+00
9.000000000000e+02 0.000000000000e+00 1.950000000000e+01 1.664517196692e-09 -3.624248581217e-09 0.000000000000e+00
8.990000000000e+02 0.000000000000e+00 2.050000000000e+01 3.458228438315e-09 -3.646899012092e-09 0.000000000000e+00
9.000000000000e+02 0.000000000000e+00 2.050000000000e+01 3.465766209898e-09 -3.629830431008e-09 0.000000000000e+00
8.990000000000e+02 0.000000000000e+00 2.150000000000e+01 1.860532682049e-08 -3.671347201337e-09 0.000000000000e+00
9.000000000000e+02 0.000000000000e+00 2.150000000000e+01 1.864682562497e-08 -3.654458770050e-09 0.000000000000e+00
8.990000000000e+02 0.000000000000e+00 2.250000000000e+01 1.216539908551e-08 -3.705594895495e-09 0.000000000000e+00
9.000000000000e+02 0.000000000000e+00 2.250000000000e+01 1.219266601063e-08 -3.688959992192e-09 0.000000000000e+00
8.990000000000e+02 0.000000000000e+00 2.350000000000e+01 2.611794791416e-08 -3.748491988142e-09 0.000000000000e+00
9.000000000000e+02 0.000000000000e+00 2.350000000000e+01 2.617686674714e-08 -3.732176813211e-09 0.000000000000e+00
8.990000000000e+02 0.000000000000e+00 2.450000000000e+01 8.925309910926e-10 -3.778856591040e-09 0.000000000000e+00
9.000000000000e+02 0.000000000000e+00 2.450000000000e+01 8.945705299200e-10 -3.762768441958e-09 0.000000000000e+00
8.990000000000e+02 0.000000000000e+00 2.550000000000e+01 7.655655667098e-08 -3.873562838465e-09 0.000000000000e+00
9.000000000000e+02 0.000000000000e+00 2.550000000000e+01 7.674511913688e-08 -3.858239443992e-09 0.000000000000e+00
8.990000000000e+02 0.000000000000e+00 2.650000000000e+01 5.432919201642e-07 -4.632104056499e-09 0.000000000000e+00
9.000000000000e+02 0.000000000000e+00 2.650000000000e+01 5.446311573547e-07 -4.622910478511e-09 0.000000000000e+00
8.990000000000e+02 0.000000000000e+00 2.750000000000e+01 1.625234427504e-07 -5.495933062637e-09 0.000000000000e+00
9.000000000000e+02 0.000000000000e+00 2.750000000000e+01 1.629240996696e-07 -5.493720414849e-09 0.000000000000e+00
8.990000000000e+02 0.000000000000e+00 2.850000000000e+01 1.514060409434e-09 -5.696706500034e-09 0.000000000000e+00
9.000000000000e+02 0.000000000000e+00 2.850000000000e+01 1.517793851669e-09 -5.696116424927e-09 0.000000000000e+00
8.990000000000e+02 0.000000000000e+00 2.950000000000e+01 2.897319246445e-08 -5.734085138571e-09 0.000000000000e+00
9.000000000000e+02 0.000000000000e+00 2.950000000000e+01 2.904474755540e-08 -5.733797604436e-09 0.000000000000e+00
