 TITLE = "Profiles along polylines"
 VARIABLES = "DIST" "HEAD" "VELOCITY_X1" "VELOCITY_Y1" "VELOCITY_Z1" 
 ZONE T="TIME=0.000000000000e+00"
0.000000000000e+00 3.000000000000e+01 0.000000000000e+00 0.000000000000e+00 0.000000000000e+00 
1.000000000000e+00 3.000000000000e+01 0.000000000000e+00 0.000000000000e+00 0.000000000000e+00 
2.000000000000e+00 3.000000000000e+01 0.000000000000e+00 0.000000000000e+00 0.000000000000e+00 
3.000000000000e+00 3.000000000000e+01 0.000000000000e+00 0.000000000000e+00 0.000000000000e+00 
4.000000000000e+00 3.000000000000e+01 0.000000000000e+00 0.000000000000e+00 0.000000000000e+00 
5.000000000000e+00 3.000000000000e+01 0.000000000000e+00 0.000000000000e+00 0.000000000000e+00 
6.000000000000e+00 3.000000000000e+01 0.000000000000e+00 0.000000000000e+00 0.000000000000e+00 
7.000000000000e+00 3.000000000000e+01 0.000000000000e+00 0.000000000000e+00 0.000000000000e+00 
8.000000000000e+00 3.000000000000e+01 0.000000000000e+00 0.000000000000e+00 0.000000000000e+00 
9.000000000000e+00 3.000000000000e+01 0.000000000000e+00 0.000000000000e+00 0.000000000000e+00 
1.000000000000e+01 3.000000000000e+01 0.000000000000e+00 0.000000000000e+00 0.000000000000e+00 
1.100000000000e+01 3.000000000000e+01 0.000000000000e+00 0.000000000000e+00 0.000000000000e+00 
1.200000000000e+01 3.000000000000e+01 0.000000000000e+00 0.000000000000e+00 0.000000000000e+00 
1.300000000000e+01 3.000000000000e+01 0.000000000000e+00 0.000000000000e+00 0.000000000000e+00 
1.400000000000e+01 3.000000000000e+01 0.000000000000e+00 0.000000000000e+00 0.000000000000e+00 
1.500000000000e+01 3.000000000000e+01 0.000000000000e+00 0.000000000000e+00 0.000000000000e+00 
1.600000000000e+01 3.000000000000e+01 0.000000000000e+00 0.000000000000e+00 0.000000000000e+00 
1.700000000000e+01 3.000000000000e+01 0.000000000000e+00 0.000000000000e+00 0.000000000000e+00 
1.800000000000e+01 3.000000000000e+01 0.000000000000e+00 0.000000000000e+00 0.000000000000e+00 
1.900000000000e+01 3.000000000000e+01 0.000000000000e+00 0.000000000000e+00 0.000000000000e+00 
2.000000000000e+01 3.000000000000e+01 0.000000000000e+00 0.000000000000e+00 0.000000000000e+00 
2.100000000000e+01 3.000000000000e+01 0.000000000000e+00 0.000000000000e+00 0.000000000000e+00 
2.200000000000e+01 3.000000000000e+01 0.000000000000e+00 0.000000000000e+00 0.000000000000e+00 
2.300000000000e+01 3.000000000000e+01 0.000000000000e+00 0.000000000000e+00 0.000000000000e+00 
2.400000000000e+01 3.000000000000e+01 0.000000000000e+00 0.000000000000e+00 0.000000000000e+00 
2.500000000000e+01 3.000000000000e+01 0.000000000000e+00 0.000000000000e+00 0.000000000000e+00 
2.600000000000e+01 3.000000000000e+01 0.000000000000e+00 0.000000000000e+00 0.000000000000e+00 
2.700000000000e+01 3.000000000000e+01 0.000000000000e+00 0.000000000000e+00 0.000000000000e+00 
2.800000000000e+01 3.000000000000e+01 0.000000000000e+00 0.000000000000e+00 0.000000000000e+00 
2.900000000000e+01 3.000000000000e+01 0.000000000000e+00 0.000000000000e+00 0.000000000000e+00 
3.000000000000e+01 3.000000000000e+01 0.000000000000e+00 0.000000000000e+00 0.000000000000e+00 
 TITLE = "Profiles along polylines"
 VARIABLES = "DIST" "HEAD" "VELOCITY_X1" "VELOCITY_Y1" "VELOCITY_Z1" 
 ZONE T="TIME=1.797693134862e+308"
0.000000000000e+00 3.051116937621e+01 2.778689158378e-07 -5.556942659338e-10 0.000000000000e+00 
1.000000000000e+00 3.051116992890e+01 1.473679753943e-07 -8.504749496913e-10 0.000000000000e+00 
2.000000000000e+00 3.051118869381e+01 1.049171173536e-08 -1.166241115727e-09 0.000000000000e+00 
3.000000000000e+00 3.051126840151e+01 2.607877474534e-09 -1.192442224483e-09 0.000000000000e+00 
4.000000000000e+00 3.051156947572e+01 8.535497536001e-09 -1.214727691920e-09 0.000000000000e+00 
5.000000000000e+00 3.051159079014e+01 8.438311643947e-09 -1.248676800513e-09 0.000000000000e+00 
6.000000000000e+00 3.051197726302e+01 6.707758172169e-09 -1.278970803679e-09 0.000000000000e+00 
7.000000000000e+00 3.051200581265e+01 1.262633510688e-08 -1.317639861326e-09 0.000000000000e+00 
8.000000000000e+00 3.051203493879e+01 5.075057730793e-08 -1.444391380936e-09 0.000000000000e+00 
9.000000000000e+00 3.051203975217e+01 5.669386873223e-08 -1.659290356542e-09 0.000000000000e+00 
1.000000000000e+01 3.051205964401e+01 9.110182277379e-08 -1.954888151216e-09 0.000000000000e+00 
1.100000000000e+01 3.051206339218e+01 8.186010611337e-08 -2.300826497471e-09 0.000000000000e+00 
1.200000000000e+01 3.051217422847e+01 6.008828719333e-09 -2.476586714309e-09 0.000000000000e+00 
1.300000000000e+01 3.051229134745e+01 4.984617549622e-09 -2.498573982155e-09 0.000000000000e+00 
1.400000000000e+01 3.051246056798e+01 1.894720154393e-07 -2.887464591380e-09 0.000000000000e+00 
1.500000000000e+01 3.051246297621e+01 2.959415925713e-07 -3.858331897103e-09 0.000000000000e+00 
1.600000000000e+01 3.051246864303e+01 1.085434631230e-07 -4.667394330858e-09 0.000000000000e+00 
1.700000000000e+01 3.053899158630e+01 4.299568761606e-10 -4.885370660645e-09 0.000000000000e+00 
1.800000000000e+01 3.054066085183e+01 1.953100407770e-09 -4.890137287354e-09 0.000000000000e+00 
1.900000000000e+01 3.054109757930e+01 1.761681367746e-09 -4.897568236532e-09 0.000000000000e+00 
2.000000000000e+01 3.054427601101e+01 6.524691653183e-10 -4.902397643950e-09 0.000000000000e+00 
2.100000000000e+01 3.054581830502e+01 2.792724316718e-09 -4.909288890560e-09 0.000000000000e+00 
2.200000000000e+01 3.054610691487e+01 3.890645213536e-09 -4.922658165353e-09 0.000000000000e+00 
2.300000000000e+01 3.054655012670e+01 4.833515891704e-09 -4.940109904188e-09 0.000000000000e+00 
2.400000000000e+01 3.054675764431e+01 3.408566821289e-09 -4.956597427803e-09 0.000000000000e+00 
2.500000000000e+01 3.055286267341e+01 9.597661197167e-09 -4.982613939940e-09 0.000000000000e+00 
2.600000000000e+01 3.055293554625e+01 7.678677930491e-08 -5.155408545946e-09 0.000000000000e+00 
2.700000000000e+01 3.055294644755e+01 8.743408291058e-08 -5.483926871083e-09 0.000000000000e+00 
2.800000000000e+01 3.055298529100e+01 2.032015701201e-08 -5.699500505448e-09 0.000000000000e+00 
2.900000000000e+01 3.055721499796e+01 3.775159744579e-09 -5.747704043871e-09 0.000000000000e+00 
3.000000000000e+01 3.055743668927e+01 7.175231545130e-09 -5.755255245461e-09 0.000000000000e+00 
