 TITLE = "Profiles along polylines"
 VARIABLES = "DIST" "HEAD" "VELOCITY_X1" "VELOCITY_Y1" "VELOCITY_Z1" 
 ZONE T="TIME=0.000000000000e+00"
0.000000000000e+00 3.000000000000e+01 0.000000000000e+00 0.000000000000e+00 0.000000000000e+00 
1.000000000000e+00 3.000000000000e+01 0.000000000000e+00 0.000000000000e+00 0.000000000000e+00 
2.000000000000e+00 3.000000000000e+01 0.000000000000e+00 0.000000000000e+00 0.000000000000e+00 
3.000000000000e+00 3.000000000000e+01 0.000000000000e+00 0.000000000000e+00 0.000000000000e+00 
4.000000000000e+00 3.000000000000e+01 0.000000000000e+00 0.000000000000e+00 0.000000000000e+00 
5.000000000000e+00 3.000000000000e+01 0.000000000000e+00 0.000000000000e+00 0.000000000000e+00 
6.000000000000e+00 3.000000000000e+01 0.000000000000e+00 0.000000000000e+00 0.000000000000e+00 
7.000000000000e+00 3.000000000000e+01 0.000000000000e+00 0.000000000000e+00 0.000000000000e+00 
8.000000000000e+00 3.000000000000e+01 0.000000000000e+00 0.000000000000e+00 0.000000000000e+00 
9.000000000000e+00 3.000000000000e+01 0.000000000000e+00 0.000000000000e+00 0.000000000000e+00 
1.000000000000e+01 3.000000000000e+01 0.000000000000e+00 0.000000000000e+00 0.000000000000e+00 
1.100000000000e+01 3.000000000000e+01 0.000000000000e+00 0.000000000000e+00 0.000000000000e+00 
1.200000000000e+01 3.000000000000e+01 0.000000000000e+00 0.000000000000e+00 0.000000000000e+00 
1.300000000000e+01 3.000000000000e+01 0.000000000000e+00 0.000000000000e+00 0.000000000000e+00 
1.400000000000e+01 3.000000000000e+01 0.000000000000e+00 0.000000000000e+00 0.000000000000e+00 
1.500000000000e+01 3.000000000000e+01 0.000000000000e+00 0.000000000000e+00 0.000000000000e+00 
1.600000000000e+01 3.000000000000e+01 0.000000000000e+00 0.000000000000e+00 0.000000000000e+00 
1.700000000000e+01 3.000000000000e+01 0.000000000000e+00 0.000000000000e+00 0.000000000000e+00 
1.800000000000e+01 3.000000000000e+01 0.000000000000e+00 0.000000000000e+00 0.000000000000e+00 
1.900000000000e+01 3.000000000000e+01 0.000000000000e+00 0.000000000000e+00 0.000000000000e+00 
2.000000000000e+01 3.000000000000e+01 0.000000000000e+00 0.000000000000e+00 0.000000000000e+00 
2.100000000000e+01 3.000000000000e+01 0.000000000000e+00 0.000000000000e+00 0.000000000000e+00 
2.200000000000e+01 3.000000000000e+01 0.000000000000e+00 0.000000000000e+00 0.000000000000e+00 
2.300000000000e+01 3.000000000000e+01 0.000000000000e+00 0.000000000000e+00 0.000000000000e+00 
2.400000000000e+01 3.000000000000e+01 0.000000000000e+00 0.000000000000e+00 0.000000000000e+00 
2.500000000000e+01 3.000000000000e+01 0.000000000000e+00 0.000000000000e+00 0.000000000000e+00 
2.600000000000e+01 3.000000000000e+01 0.000000000000e+00 0.000000000000e+00 0.000000000000e+00 
2.700000000000e+01 3.000000000000e+01 0.000000000000e+00 0.000000000000e+00 0.000000000000e+00 
2.800000000000e+01 3.000000000000e+01 0.000000000000e+00 0.000000000000e+00 0.000000000000e+00 
2.900000000000e+01 3.000000000000e+01 0.000000000000e+00 0.000000000000e+00 0.000000000000e+00 
3.000000000000e+01 3.000000000000e+01 0.000000000000e+00 0.000000000000e+00 0.000000000000e+00 
 TITLE = "Profiles along polylines"
 VARIABLES = "DIST" "HEAD" "VELOCITY_X1" "VELOCITY_Y1" "VELOCITY_Z1" 
 ZONE T="TIME=1.797693134862e+308"
0.000000000000e+00 3.023851986825e+01 3.821857539441e-08 -2.534971316229e-11 0.000000000000e+00 
1.000000000000e+00 3.023852041807e+01 2.046650264999e-08 -3.892406697791e-11 0.000000000000e+00 
2.000000000000e+00 3.023853644993e+01 1.433545155679e-09 -5.344926400299e-11 0.000000000000e+00 
3.000000000000e+00 3.023883184307e+01 1.883918874796e-08 -6.690652885651e-11 0.000000000000e+00 
4.000000000000e+00 3.023883359735e+01 2.493649512243e-08 -9.596634447328e-11 0.000000000000e+00 
5.000000000000e+00 3.023884115167e+01 3.012740620528e-08 -1.325200856228e-10 0.000000000000e+00 
6.000000000000e+00 3.023884379081e+01 2.429075266599e-08 -1.686455999979e-10 0.000000000000e+00 
7.000000000000e+00 3.023907105986e+01 2.366704623602e-07 -3.419766918698e-10 0.000000000000e+00 
8.000000000000e+00 3.023907193536e+01 2.647835973873e-07 -6.750533308231e-10 0.000000000000e+00 
9.000000000000e+00 3.023908433271e+01 3.725761423177e-08 -8.756717534032e-10 0.000000000000e+00 
1.000000000000e+01 3.023912670835e+01 9.370039322769e-09 -9.066440353971e-10 0.000000000000e+00 
1.100000000000e+01 3.023979936757e+01 2.586230809030e-08 -9.300737275631e-10 0.000000000000e+00 
1.200000000000e+01 3.023981488865e+01 8.569067338931e-08 -1.004285897472e-09 0.000000000000e+00 
1.300000000000e+01 3.023982217358e+01 6.103014146812e-08 -1.101893550663e-09 0.000000000000e+00 
1.400000000000e+01 3.024056309810e+01 4.174644441189e-07 -1.420624209303e-09 0.000000000000e+00 
1.500000000000e+01 3.024056478766e+01 4.267136830386e-07 -1.983032025891e-09 0.000000000000e+00 
1.600000000000e+01 3.024065984377e+01 5.721906181602e-07 -2.648567697033e-09 0.000000000000e+00 
1.700000000000e+01 3.024066207759e+01 5.635157077877e-07 -3.405284834139e-09 0.000000000000e+00 
1.800000000000e+01 3.024195367970e+01 1.043263687582e-08 -3.787703203453e-09 0.000000000000e+00 
1.900000000000e+01 3.024212433279e+01 1.053733049607e-08 -3.801692085581e-09 0.000000000000e+00 
2.000000000000e+01 3.024332223754e+01 1.208221792833e-08 -3.816790766947e-09 0.000000000000e+00 
2.100000000000e+01 3.024346957040e+01 1.541038424098e-08 -3.835152249601e-09 0.000000000000e+00 
2.200000000000e+01 3.024381272452e+01 9.258987261890e-09 -3.851630697929e-09 0.000000000000e+00 
2.300000000000e+01 3.024415951497e+01 2.065451265436e-07 -3.995851812076e-09 0.000000000000e+00 
2.400000000000e+01 3.024416800334e+01 2.388839023811e-07 -4.293527854695e-09 0.000000000000e+00 
2.500000000000e+01 3.024421797353e+01 3.860078924746e-08 -4.478965526163e-09 0.000000000000e+00 
2.600000000000e+01 3.024535040695e+01 1.348220367514e-07 -4.594919451107e-09 0.000000000000e+00 
2.700000000000e+01 3.024536499470e+01 1.402339572421e-07 -4.778848556499e-09 0.000000000000e+00 
2.800000000000e+01 3.024565112329e+01 3.327002397994e-07 -5.095123710268e-09 0.000000000000e+00 
2.900000000000e+01 3.024565789457e+01 3.317857876718e-07 -5.539507819792e-09 0.000000000000e+00 
3.000000000000e+01 3.024604654452e+01 1.229383158399e-08 -5.761388789998e-09 0.000000000000e+00 
