 TITLE = "Profiles along polylines"
 VARIABLES = "DIST" "HEAD" "VELOCITY_X1" "VELOCITY_Y1" "VELOCITY_Z1" 
 ZONE T="TIME=0.000000000000e+00"
0.000000000000e+00 3.000000000000e+01 0.000000000000e+00 0.000000000000e+00 0.000000000000e+00 
1.000000000000e+00 3.000000000000e+01 0.000000000000e+00 0.000000000000e+00 0.000000000000e+00 
2.000000000000e+00 3.000000000000e+01 0.000000000000e+00 0.000000000000e+00 0.000000000000e+00 
3.000000000000e+00 3.000000000000e+01 0.000000000000e+00 0.000000000000e+00 0.000000000000e+00 
4.000000000000e+00 3.000000000000e+01 0.000000000000e+00 0.000000000000e+00 0.000000000000e+00 
5.000000000000e+00 3.000000000000e+01 0.000000000000e+00 0.000000000000e+00 0.000000000000e+00 
6.000000000000e+00 3.000000000000e+01 0.000000000000e+00 0.000000000000e+00 0.000000000000e+00 
7.000000000000e+00 3.000000000000e+01 0.000000000000e+00 0.000000000000e+00 0.000000000000e+00 
8.000000000000e+00 3.000000000000e+01 0.000000000000e+00 0.000000000000e+00 0.000000000000e+00 
9.000000000000e+00 3.000000000000e+01 0.000000000000e+00 0.000000000000e+00 0.000000000000e+00 
1.000000000000e+01 3.000000000000e+01 0.000000000000e+00 0.000000000000e+00 0.000000000000e+00 
1.100000000000e+01 3.000000000000e+01 0.000000000000e+00 0.000000000000e+00 0.000000000000e+00 
1.200000000000e+01 3.000000000000e+01 0.000000000000e+00 0.000000000000e+00 0.000000000000e+00 
1.300000000000e+01 3.000000000000e+01 0.000000000000e+00 0.000000000000e+00 0.000000000000e+00 
1.400000000000e+01 3.000000000000e+01 0.000000000000e+00 0.000000000000e+00 0.000000000000e+00 
1.500000000000e+01 3.000000000000e+01 0.000000000000e+00 0.000000000000e+00 0.000000000000e+00 
1.600000000000e+01 3.000000000000e+01 0.000000000000e+00 0.000000000000e+00 0.000000000000e+00 
1.700000000000e+01 3.000000000000e+01 0.000000000000e+00 0.000000000000e+00 0.000000000000e+00 
1.800000000000e+01 3.000000000000e+01 0.000000000000e+00 0.000000000000e+00 0.000000000000e+00 
1.900000000000e+01 3.000000000000e+01 0.000000000000e+00 0.000000000000e+00 0.000000000000e+00 
2.000000000000e+01 3.000000000000e+01 0.000000000000e+00 0.000000000000e+00 0.000000000000e+00 
2.100000000000e+01 3.000000000000e+01 0.000000000000e+00 0.000000000000e+00 0.000000000000e+00 
2.200000000000e+01 3.000000000000e+01 0.000000000000e+00 0.000000000000e+00 0.000000000000e+00 
2.300000000000e+01 3.000000000000e+01 0.000000000000e+00 0.000000000000e+00 0.000000000000e+00 
2.400000000000e+01 3.000000000000e+01 0.000000000000e+00 0.000000000000e+00 0.000000000000e+00 
2.500000000000e+01 3.000000000000e+01 0.000000000000e+00 0.000000000000e+00 0.000000000000e+00 
2.600000000000e+01 3.000000000000e+01 0.000000000000e+00 0.000000000000e+00 0.000000000000e+00 
2.700000000000e+01 3.000000000000e+01 0.000000000000e+00 0.000000000000e+00 0.000000000000e+00 
2.800000000000e+01 3.000000000000e+01 0.000000000000e+00 0.000000000000e+00 0.000000000000e+00 
2.900000000000e+01 3.000000000000e+01 0.000000000000e+00 0.000000000000e+00 0.000000000000e+00 
3.000000000000e+01 3.000000000000e+01 0.000000000000e+00 0.000000000000e+00 0.000000000000e+00 
 TITLE = "Profiles along polylines"
 VARIABLES = "DIST" "HEAD" "VELOCITY_X1" "VELOCITY_Y1" "VELOCITY_Z1" 
 ZONE T="TIME=1.797693134862e+308"
0.000000000000e+00 3.054805073704e+01 2.548203548561e-09 -2.548362478254e-11 0.000000000000e+00 
1.000000000000e+00 3.054805128976e+01 1.364593252832e-09 -3.913345588611e-11 0.000000000000e+00 
2.000000000000e+00 3.054806740861e+01 9.558061840609e-11 -5.373934362982e-11 0.000000000000e+00 
3.000000000000e+00 3.054836440520e+01 1.256029777559e-09 -6.725647730026e-11 0.000000000000e+00 
4.000000000000e+00 3.054836616842e+01 1.662543564572e-09 -9.644735826145e-11 0.000000000000e+00 
5.000000000000e+00 3.054837376016e+01 2.008625076899e-09 -1.331656734361e-10 0.000000000000e+00 
6.000000000000e+00 3.054837641200e+01 1.619488782002e-09 -1.694532763309e-10 0.000000000000e+00 
7.000000000000e+00 3.054860476542e+01 1.577854580823e-08 -3.434475916505e-10 0.000000000000e+00 
8.000000000000e+00 3.054860564453e+01 1.765281401551e-08 -6.778210920861e-10 0.000000000000e+00 
9.000000000000e+00 3.054861809252e+01 2.483917980557e-09 -8.792442100674e-10 0.000000000000e+00 
1.000000000000e+01 3.054866064086e+01 6.246854361433e-10 -9.103367511735e-10 0.000000000000e+00 
1.100000000000e+01 3.054933603814e+01 1.724057287316e-09 -9.338260896209e-10 0.000000000000e+00 
1.200000000000e+01 3.054935162131e+01 5.712380909734e-09 -1.008200239539e-09 0.000000000000e+00 
1.300000000000e+01 3.054935893396e+01 4.068437214201e-09 -1.106028765040e-09 0.000000000000e+00 
1.400000000000e+01 3.055010260211e+01 2.782704397423e-08 -1.425012014555e-09 0.000000000000e+00 
1.500000000000e+01 3.055010429619e+01 2.844356906929e-08 -1.987819113366e-09 0.000000000000e+00 
1.600000000000e+01 3.055019956315e+01 3.814042084851e-08 -2.653767520149e-09 0.000000000000e+00 
1.700000000000e+01 3.055020180093e+01 3.756217400597e-08 -3.410928222902e-09 0.000000000000e+00 
1.800000000000e+01 3.055149542420e+01 6.953635899660e-10 -3.793614608838e-09 0.000000000000e+00 
1.900000000000e+01 3.055166634292e+01 7.023359976036e-10 -3.807594015892e-09 0.000000000000e+00 
2.000000000000e+01 3.055286610250e+01 8.052604368506e-10 -3.822672465643e-09 0.000000000000e+00 
2.100000000000e+01 3.055301366131e+01 1.027070281834e-09 -3.840998891675e-09 0.000000000000e+00 
2.200000000000e+01 3.055335733544e+01 6.170825663265e-10 -3.857443946440e-09 0.000000000000e+00 
2.300000000000e+01 3.055370464720e+01 1.376536780058e-08 -4.001278605769e-09 0.000000000000e+00 
2.400000000000e+01 3.055371314594e+01 1.592060668493e-08 -4.298192131091e-09 0.000000000000e+00 
2.500000000000e+01 3.055376316409e+01 2.572576366971e-09 -4.483175513043e-09 0.000000000000e+00 
2.600000000000e+01 3.055489663971e+01 8.985022338342e-09 -4.598763956600e-09 0.000000000000e+00 
2.700000000000e+01 3.055491123848e+01 9.345688891505e-09 -4.782103906916e-09 0.000000000000e+00 
2.800000000000e+01 3.055519754133e+01 2.217220741769e-08 -5.097324818078e-09 0.000000000000e+00 
2.900000000000e+01 3.055520431443e+01 2.211126410366e-08 -5.540238359364e-09 0.000000000000e+00 
3.000000000000e+01 3.055559296617e+01 8.193001388802e-10 -5.761415114055e-09 0.000000000000e+00 
