 TITLE = "Profiles along polylines"
 VARIABLES = "DIST" "HEAD" "VELOCITY_X1" "VELOCITY_Y1" "VELOCITY_Z1" 
 ZONE T="TIME=0.000000000000e+00"
0.000000000000e+00 3.000000000000e+01 0.000000000000e+00 0.000000000000e+00 0.000000000000e+00 
1.000000000000e+00 3.000000000000e+01 0.000000000000e+00 0.000000000000e+00 0.000000000000e+00 
2.000000000000e+00 3.000000000000e+01 0.000000000000e+00 0.000000000000e+00 0.000000000000e+00 
3.000000000000e+00 3.000000000000e+01 0.000000000000e+00 0.000000000000e+00 0.000000000000e+00 
4.000000000000e+00 3.000000000000e+01 0.000000000000e+00 0.000000000000e+00 0.000000000000e+00 
5.000000000000e+00 3.000000000000e+01 0.000000000000e+00 0.000000000000e+00 0.000000000000e+00 
6.000000000000e+00 3.000000000000e+01 0.000000000000e+00 0.000000000000e+00 0.000000000000e+00 
7.000000000000e+00 3.000000000000e+01 0.000000000000e+00 0.000000000000e+00 0.000000000000e+00 
8.000000000000e+00 3.000000000000e+01 0.000000000000e+00 0.000000000000e+00 0.000000000000e+00 
9.000000000000e+00 3.000000000000e+01 0.000000000000e+00 0.000000000000e+00 0.000000000000e+00 
1.000000000000e+01 3.000000000000e+01 0.000000000000e+00 0.000000000000e+00 0.000000000000e+00 
1.100000000000e+01 3.000000000000e+01 0.000000000000e+00 0.000000000000e+00 0.000000000000e+00 
1.200000000000e+01 3.000000000000e+01 0.000000000000e+00 0.000000000000e+00 0.000000000000e+00 
1.300000000000e+01 3.000000000000e+01 0.000000000000e+00 0.000000000000e+00 0.000000000000e+00 
1.400000000000e+01 3.000000000000e+01 0.000000000000e+00 0.000000000000e+00 0.000000000000e+00 
1.500000000000e+01 3.000000000000e+01 0.000000000000e+00 0.000000000000e+00 0.000000000000e+00 
1.600000000000e+01 3.000000000000e+01 0.000000000000e+00 0.000000000000e+00 0.000000000000e+00 
1.700000000000e+01 3.000000000000e+01 0.000000000000e+00 0.000000000000e+00 0.000000000000e+00 
1.800000000000e+01 3.000000000000e+01 0.000000000000e+00 0.000000000000e+00 0.000000000000e+00 
1.900000000000e+01 3.000000000000e+01 0.000000000000e+00 0.000000000000e+00 0.000000000000e+00 
2.000000000000e+01 3.000000000000e+01 0.000000000000e+00 0.000000000000e+00 0.000000000000e+00 
2.100000000000e+01 3.000000000000e+01 0.000000000000e+00 0.000000000000e+00 0.000000000000e+00 
2.200000000000e+01 3.000000000000e+01 0.000000000000e+00 0.000000000000e+00 0.000000000000e+00 
2.300000000000e+01 3.000000000000e+01 0.000000000000e+00 0.000000000000e+00 0.000000000000e+00 
2.400000000000e+01 3.000000000000e+01 0.000000000000e+00 0.000000000000e+00 0.000000000000e+00 
2.500000000000e+01 3.000000000000e+01 0.000000000000e+00 0.000000000000e+00 0.000000000000e+00 
2.600000000000e+01 3.000000000000e+01 0.000000000000e+00 0.000000000000e+00 0.000000000000e+00 
2.700000000000e+01 3.000000000000e+01 0.000000000000e+00 0.000000000000e+00 0.000000000000e+00 
2.800000000000e+01 3.000000000000e+01 0.000000000000e+00 0.000000000000e+00 0.000000000000e+00 
2.900000000000e+01 3.000000000000e+01 0.000000000000e+00 0.000000000000e+00 0.000000000000e+00 
3.000000000000e+01 3.000000000000e+01 0.000000000000e+00 0.000000000000e+00 0.000000000000e+00 
 TITLE = "Profiles along polylines"
 VARIABLES = "DIST" "HEAD" "VELOCITY_X1" "VELOCITY_Y1" "VELOCITY_Z1" 
 ZONE T="TIME=1.797693134862e+308"
0.000000000000e+00 3.010207019187e+01 4.547314868161e-08 -2.094426609157e-11 0.000000000000e+00 
1.000000000000e+00 3.010207064613e+01 2.435146255922e-08 -3.216062405909e-11 0.000000000000e+00 
2.000000000000e+00 3.010208389251e+01 1.705762272059e-09 -4.416360702506e-11 0.000000000000e+00 
3.000000000000e+00 3.010232797273e+01 2.244102732368e-08 -5.552798664127e-11 0.000000000000e+00 
4.000000000000e+00 3.010232943305e+01 2.970425706171e-08 -8.010883103046e-11 0.000000000000e+00 
5.000000000000e+00 3.010233575151e+01 3.588861227710e-08 -1.110397891292e-10 0.000000000000e+00 
6.000000000000e+00 3.010233796580e+01 2.893609484085e-08 -1.416187753659e-10 0.000000000000e+00 
7.000000000000e+00 3.010252894861e+01 2.821549283081e-07 -2.905849913106e-10 0.000000000000e+00 
8.000000000000e+00 3.010252969558e+01 3.156718910347e-07 -5.772980433439e-10 0.000000000000e+00 
9.000000000000e+00 3.010254031216e+01 4.441987723850e-08 -7.500186234246e-10 0.000000000000e+00 
1.000000000000e+01 3.010257661311e+01 1.117283490497e-08 -7.767204622209e-10 0.000000000000e+00 
1.100000000000e+01 3.010315291352e+01 3.090541191749e-08 -7.976787822875e-10 0.000000000000e+00 
1.200000000000e+01 3.010316623868e+01 1.024052884324e-07 -8.649323873648e-10 0.000000000000e+00 
1.300000000000e+01 3.010317253045e+01 7.293618490977e-08 -9.534284667947e-10 0.000000000000e+00 
1.400000000000e+01 3.010381472240e+01 5.000344079311e-07 -1.254753349160e-09 0.000000000000e+00 
1.500000000000e+01 3.010381623343e+01 5.111152384149e-07 -1.789645596314e-09 0.000000000000e+00 
1.600000000000e+01 3.010390259961e+01 6.855149440157e-07 -2.424491224870e-09 0.000000000000e+00 
1.700000000000e+01 3.010390465584e+01 6.751250259275e-07 -3.147918787111e-09 0.000000000000e+00 
1.800000000000e+01 3.010510270204e+01 1.252979465007e-08 -3.513958650267e-09 0.000000000000e+00 
1.900000000000e+01 3.010526104927e+01 1.265963721992e-08 -3.528223782468e-09 0.000000000000e+00 
2.000000000000e+01 3.010637299615e+01 1.454855092571e-08 -3.544121914250e-09 0.000000000000e+00 
2.100000000000e+01 3.010650985023e+01 1.856120493459e-08 -3.563993011465e-09 0.000000000000e+00 
2.200000000000e+01 3.010682888527e+01 1.115915872859e-08 -3.581969865662e-09 0.000000000000e+00 
2.300000000000e+01 3.010715149102e+01 2.490914292418e-07 -3.742812297750e-09 0.000000000000e+00 
2.400000000000e+01 3.010715949265e+01 2.880953694026e-07 -4.075049073411e-09 0.000000000000e+00 
2.500000000000e+01 3.010720721952e+01 4.655553066645e-08 -4.282084641773e-09 0.000000000000e+00 
2.600000000000e+01 3.010829092325e+01 1.628149372882e-07 -4.414524341871e-09 0.000000000000e+00 
2.700000000000e+01 3.010830499118e+01 1.693528480359e-07 -4.625927456497e-09 0.000000000000e+00 
2.800000000000e+01 3.010858296355e+01 4.018702492149e-07 -4.990668978643e-09 0.000000000000e+00 
2.900000000000e+01 3.010858964567e+01 4.007666201052e-07 -5.503864227933e-09 0.000000000000e+00 
3.000000000000e+01 3.010897820970e+01 1.484984794386e-08 -5.760114857365e-09 0.000000000000e+00 
