VARIABLES = "X","Y","Z",VELOCITY1_X,VELOCITY1_Y,VELOCITY1_Z
ZONE T="0.000000000000e+00s", 
7.490000000000e+02 0.000000000000e+00 5.000000000000e-01 0.000000000000e+00 0.000000000000e+00 0.000000000000e+00
7.500000000000e+02 0.000000000000e+00 5.000000000000e-01 0.000000000000e+00 0.000000000000e+00 0.000000000000e+00
7.490000000000e+02 0.000000000000e+00 1.500000000000e+00 0.000000000000e+00 0.000000000000e+00 0.000000000000e+00
7.500000000000e+02 0.000000000000e+00 1.500000000000e+00 0.000000000000e+00 0.000000000000e+00 0.000000000000e+00
7.490000000000e+02 0.000000000000e+00 2.500000000000e+00 0.000000000000e+00 0.000000000000e+00 0.000000000000e+00
7.500000000000e+02 0.000000000000e+00 2.500000000000e+00 0.000000000000e+00 0.000000000000e+00 0.000000000000e+00
7.490000000000e+02 0.000000000000e+00 3.500000000000e+00 0.000000000000e+00 0.000000000000e+00 0.000000000000e+00
7.500000000000e+02 0.000000000000e+00 3.500000000000e+00 0.000000000000e+00 0.000000000000e+00 0.000000000000e+00
7.490000000000e+02 0.000000000000e+00 4.500000000000e+00 0.000000000000e+00 0.000000000000e+00 0.000000000000e+00
7.500000000000e+02 0.000000000000e+00 4.500000000000e+00 0.000000000000e+00 0.000000000000e+00 0.000000000000e+00
7.490000000000e+02 0.000000000000e+00 5.500000000000e+00 0.000000000000e+00 0.000000000000e+00 0.000000000000e+00
7.500000000000e+02 0.000000000000e+00 5.500000000000e+00 0.000000000000e+00 0.000000000000e+00 0.000000000000e+00
7.490000000000e+02 0.000000000000e+00 6.500000000000e+00 0.000000000000e+00 0.000000000000e+00 0.000000000000e+00
7.500000000000e+02 0.000000000000e+00 6.500000000000e+00 0.000000000000e+00 0.000000000000e+00 0.000000000000e+00
7.490000000000e+02 0.000000000000e+00 7.500000000000e+00 0.000000000000e+00 0.000000000000e+00 0.000000000000e+00
7.500000000000e+02 0.000000000000e+00 7.500000000000e+00 0.000000000000e+00 0.000000000000e+00 0.000000000000e+00
7.490000000000e+02 0.000000000000e+00 8.500000000000e+00 0.000000000000e+00 0.000000000000e+00 0.000000000000e+00
7.500000000000e+02 0.000000000000e+00 8.500000000000e+00 0.000000000000e+00 0.000000000000e+00 0.000000000000e+00
7.490000000000e+02 0.000000000000e+00 9.500000000000e+00 0.000000000000e+00 0.000000000000e+00 0.000000000000e+00
7.500000000000e+02 0.000000000000e+00 9.500000000000e+00 0.000000000000e+00 0.000000000000e+00 0.000000000000e+00
7.490000000000e+02 0.000000000000e+00 1.050000000000e+01 0.000000000000e+00 0.000000000000e+00 0.000000000000e+00
7.500000000000e+02 0.000000000000e+00 1.050000000000e+01 0.000000000000e+00 0.000000000000e+00 0.000000000000e+00
7.490000000000e+02 0.000000000000e+00 1.150000000000e+01 0.000000000000e+00 0.000000000000e+00 0.000000000000e+00
7.500000000000e+02 0.000000000000e+00 1.150000000000e+01 0.000000000000e+00 0.000000000000e+00 0.000000000000e+00
7.490000000000e+02 0.000000000000e+00 1.250000000000e+01 0.000000000000e+00 0.000000000000e+00 0.000000000000e+00
7.500000000000e+02 0.000000000000e+00 1.250000000000e+01 0.000000000000e+00 0.000000000000e+00 0.000000000000e+00
7.490000000000e+02 0.000000000000e+00 1.350000000000e+01 0.000000000000e+00 0.000000000000e+00 0.000000000000e+00
7.500000000000e+02 0.000000000000e+00 1.350000000000e+01 0.000000000000e+00 0.000000000000e+00 0.000000000000e+00
7.490000000000e+02 0.000000000000e+00 1.450000000000e+01 0.000000000000e+00 0.000000000000e+00 0.000000000000e+00
7.500000000000e+02 0.000000000000e+00 1.450000000000e+01 0.000000000000e+00 0.000000000000e+00 0.000000000000e+00
7.490000000000e+02 0.000000000000e+00 1.550000000000e+01 0.000000000000e+00 0.000000000000e+00 0.000000000000e+00
7.500000000000e+02 0.000000000000e+00 1.550000000000e+01 0.000000000000e+00 0.000000000000e+00 0.000000000000e+00
7.490000000000e+02 0.000000000000e+00 1.650000000000e+01 0.000000000000e+00 0.000000000000e+00 0.000000000000e+00
7.500000000000e+02 0.000000000000e+00 1.650000000000e+01 0.000000000000e+00 0.000000000000e+00 0.000000000000e+00
7.490000000000e+02 0.000000000000e+00 1.750000000000e+01 0.000000000000e+00 0.000000000000e+00 0.000000000000e+00
7.500000000000e+02 0.000000000000e+00 1.750000000000e+01 0.000000000000e+00 0.000000000000e+00 0.000000000000e+00
7.490000000000e+02 0.000000000000e+00 1.850000000000e+01 0.000000000000e+00 0.000000000000e+00 0.000000000000e+00
7.500000000000e+02 0.000000000000e+00 1.850000000000e+01 0.000000000000e+00 0.000000000000e+00 0.000000000000e+00
7.490000000000e+02 0.000000000000e+00 1.950000000000e+01 0.000000000000e+00 0.000000000000e+00 0.000000000000e+00
7.500000000000e+02 0.000000000000e+00 1.950000000000e+01 0.000000000000e+00 0.000000000000e+00 0.000000000000e+00
7.490000000000e+02 0.000000000000e+00 2.050000000000e+01 0.000000000000e+00 0.000000000000e+00 0.000000000000e+00
7.500000000000e+02 0.000000000000e+00 2.050000000000e+01 0.000000000000e+00 0.000000000000e+00 0.000000000000e+00
7.490000000000e+02 0.000000000000e+00 2.150000000000e+01 0.000000000000e+00 0.000000000000e+00 0.000000000000e+00
7.500000000000e+02 0.000000000000e+00 2.150000000000e+01 0.000000000000e+00 0.000000000000e+00 0.000000000000e+00
7.490000000000e+02 0.000000000000e+00 2.250000000000e+01 0.000000000000e+00 0.000000000000e+00 0.000000000000e+00
7.500000000000e+02 0.000000000000e+00 2.250000000000e+01 0.000000000000e+00 0.000000000000e+00 0.000000000000e+00
7.490000000000e+02 0.000000000000e+00 2.350000000000e+01 0.000000000000e+00 0.000000000000e+00 0.000000000000e+00
7.500000000000e+02 0.000000000000e+00 2.350000000000e+01 0.000000000000e+00 0.000000000000e+00 0.000000000000e+00
7.490000000000e+02 0.000000000000e+00 2.450000000000e+01 0.000000000000e+00 0.000000000000e+00 0.000000000000e+00
7.500000000000e+02 0.000000000000e+00 2.450000000000e+01 0.000000000000e+00 0.000000000000e+00 0.000000000000e+00
7.490000000000e+02 0.000000000000e+00 2.550000000000e+01 0.000000000000e+00 0.000000000000e+00 0.000000000000e+00
7.500000000000e+02 0.000000000000e+00 2.550000000000e+01 0.000000000000e+00 0.000000000000e+00 0.000000000000e+00
7.490000000000e+02 0.000000000000e+00 2.650000000000e+01 0.000000000000e+00 0.000000000000e+00 0.000000000000e+00
7.500000000000e+02 0.000000000000e+00 2.650000000000e+01 0.000000000000e+00 0.000000000000e+00 0.000000000000e+00
7.490000000000e+02 0.000000000000e+00 2.750000000000e+01 0.000000000000e+00 0.000000000000e+00 0.000000000000e+00
7.500000000000e+02 0.000000000000e+00 2.750000000000e+01 0.000000000000e+00 0.000000000000e+00 0.000000000000e+00
7.490000000000e+02 0.000000000000e+00 2.850000000000e+01 0.000000000000e+00 0.000000000000e+00 0.000000000000e+00
7.500000000000e+02 0.000000000000e+00 2.850000000000e+01 0.000000000000e+00 0.000000000000e+00 0.000000000000e+00
7.490000000000e+02 0.000000000000e+00 2.950000000000e+01 0.000000000000e+00 0.000000000000e+00 0.000000000000e+00
7.500000000000e+02 0.000000000000e+00 2.950000000000e+01 0.000000000000e+00 0.000000000000e+00 0.000000000000e+00
VARIABLES = "X","Y","Z",VELOCITY1_X,VELOCITY1_Y,VELOCITY1_Z
ZONE T="1.797693134862e+308s", 
7.490000000000e+02 0.000000000000e+00 5.000000000000e-01 3.819322572726e-08 -2.535266284840e-11 0.000000000000e+00
7.500000000000e+02 0.000000000000e+00 5.000000000000e-01 3.824392582031e-08 -2.534932898771e-11 0.000000000000e+00
7.490000000000e+02 0.000000000000e+00 1.500000000000e+00 2.712626856528e-09 -5.250452244124e-11 0.000000000000e+00
7.500000000000e+02 0.000000000000e+00 1.500000000000e+00 2.716227791144e-09 -5.249762673499e-11 0.000000000000e+00
7.490000000000e+02 0.000000000000e+00 2.500000000000e+00 1.525563535877e-10 -5.440642788941e-11 0.000000000000e+00
7.500000000000e+02 0.000000000000e+00 2.500000000000e+00 1.527588942569e-10 -5.439928490775e-11 0.000000000000e+00
7.490000000000e+02 0.000000000000e+00 3.500000000000e+00 3.750080276162e-08 -7.942170700183e-11 0.000000000000e+00
7.500000000000e+02 0.000000000000e+00 3.500000000000e+00 3.755062643888e-08 -7.941181067519e-11 0.000000000000e+00
7.490000000000e+02 0.000000000000e+00 4.500000000000e+00 1.233907140398e-08 -1.125317104917e-10 0.000000000000e+00
7.500000000000e+02 0.000000000000e+00 4.500000000000e+00 1.235546523355e-08 -1.125181805655e-10 0.000000000000e+00
7.490000000000e+02 0.000000000000e+00 5.500000000000e+00 4.787572933026e-08 -1.525362842987e-10 0.000000000000e+00
7.500000000000e+02 0.000000000000e+00 5.500000000000e+00 4.793933869032e-08 -1.525183709589e-10 0.000000000000e+00
7.490000000000e+02 0.000000000000e+00 6.500000000000e+00 6.735102624654e-10 -1.847897264201e-10 0.000000000000e+00
7.500000000000e+02 0.000000000000e+00 6.500000000000e+00 6.744051726936e-10 -1.847682999599e-10 0.000000000000e+00
7.490000000000e+02 0.000000000000e+00 7.500000000000e+00 4.723529852557e-07 -4.992281302767e-10 0.000000000000e+00
7.500000000000e+02 0.000000000000e+00 7.500000000000e+00 4.729809220711e-07 -4.991766910407e-10 0.000000000000e+00
7.490000000000e+02 0.000000000000e+00 8.500000000000e+00 5.686240862420e-08 -8.509991214057e-10 0.000000000000e+00
7.500000000000e+02 0.000000000000e+00 8.500000000000e+00 5.693800074910e-08 -8.509142747042e-10 0.000000000000e+00
7.490000000000e+02 0.000000000000e+00 9.500000000000e+00 1.760325680250e-08 -9.004986715537e-10 0.000000000000e+00
7.500000000000e+02 0.000000000000e+00 9.500000000000e+00 1.762665911585e-08 -9.004091503526e-10 0.000000000000e+00
7.490000000000e+02 0.000000000000e+00 1.050000000000e+01 1.124303290539e-09 -9.129488376502e-10 0.000000000000e+00
7.500000000000e+02 0.000000000000e+00 1.050000000000e+01 1.125798331414e-09 -9.128581676333e-10 0.000000000000e+00
7.490000000000e+02 0.000000000000e+00 1.150000000000e+01 5.056583236669e-08 -9.473607902291e-10 0.000000000000e+00
7.500000000000e+02 0.000000000000e+00 1.150000000000e+01 5.063315700655e-08 -9.472681778708e-10 0.000000000000e+00
7.490000000000e+02 0.000000000000e+00 1.250000000000e+01 1.207014254767e-07 -1.061380501391e-09 0.000000000000e+00
7.500000000000e+02 0.000000000000e+00 1.250000000000e+01 1.208621352953e-07 -1.061281555666e-09 0.000000000000e+00
7.490000000000e+02 0.000000000000e+00 1.350000000000e+01 1.277575013087e-09 -1.142585638188e-09 0.000000000000e+00
7.500000000000e+02 0.000000000000e+00 1.350000000000e+01 1.279276355240e-09 -1.142482241980e-09 0.000000000000e+00
7.490000000000e+02 0.000000000000e+00 1.450000000000e+01 8.330949668595e-07 -1.698855157132e-09 0.000000000000e+00
7.500000000000e+02 0.000000000000e+00 1.450000000000e+01 8.342057989557e-07 -1.698741126661e-09 0.000000000000e+00
7.490000000000e+02 0.000000000000e+00 1.550000000000e+01 1.976371870241e-08 -2.267419963094e-09 0.000000000000e+00
7.500000000000e+02 0.000000000000e+00 1.550000000000e+01 1.979007164051e-08 -2.267295437779e-09 0.000000000000e+00
7.490000000000e+02 0.000000000000e+00 1.650000000000e+01 1.123854895974e-06 -3.029946645135e-09 0.000000000000e+00
7.500000000000e+02 0.000000000000e+00 1.650000000000e+01 1.125353594316e-06 -3.029809846974e-09 0.000000000000e+00
7.490000000000e+02 0.000000000000e+00 1.750000000000e+01 2.425447353036e-09 -3.780875359467e-09 0.000000000000e+00
7.500000000000e+02 0.000000000000e+00 1.750000000000e+01 2.428682182250e-09 -3.780726953497e-09 0.000000000000e+00
7.490000000000e+02 0.000000000000e+00 1.850000000000e+01 1.842579320273e-08 -3.794793475657e-09 0.000000000000e+00
7.500000000000e+02 0.000000000000e+00 1.850000000000e+01 1.845039252500e-08 -3.794645262269e-09 0.000000000000e+00
7.490000000000e+02 0.000000000000e+00 1.950000000000e+01 2.634692998933e-09 -3.808852725885e-09 0.000000000000e+00
7.500000000000e+02 0.000000000000e+00 1.950000000000e+01 2.638211305009e-09 -3.808704769482e-09 0.000000000000e+00
7.490000000000e+02 0.000000000000e+00 2.050000000000e+01 2.151349031919e-08 -3.824989965519e-09 0.000000000000e+00
7.500000000000e+02 0.000000000000e+00 2.050000000000e+01 2.154224543076e-08 -3.824842738550e-09 0.000000000000e+00
7.490000000000e+02 0.000000000000e+00 2.150000000000e+01 9.286578170309e-09 -3.845574157312e-09 0.000000000000e+00
7.500000000000e+02 0.000000000000e+00 2.150000000000e+01 9.298992463117e-09 -3.845427934676e-09 0.000000000000e+00
7.490000000000e+02 0.000000000000e+00 2.250000000000e+01 9.218911051372e-09 -3.857945356407e-09 0.000000000000e+00
7.500000000000e+02 0.000000000000e+00 2.250000000000e+01 9.231238423285e-09 -3.857799831151e-09 0.000000000000e+00
7.490000000000e+02 0.000000000000e+00 2.350000000000e+01 4.035951531618e-07 -4.134000174001e-09 0.000000000000e+00
7.500000000000e+02 0.000000000000e+00 2.350000000000e+01 4.041349718341e-07 -4.133872276304e-09 0.000000000000e+00
7.490000000000e+02 0.000000000000e+00 2.450000000000e+01 7.385324918595e-08 -4.453263670110e-09 0.000000000000e+00
7.500000000000e+02 0.000000000000e+00 2.450000000000e+01 7.395203056391e-08 -4.453156315540e-09 0.000000000000e+00
7.490000000000e+02 0.000000000000e+00 2.550000000000e+01 3.296649364149e-09 -4.504854373194e-09 0.000000000000e+00
7.500000000000e+02 0.000000000000e+00 2.550000000000e+01 3.301059141091e-09 -4.504750372775e-09 0.000000000000e+00
7.490000000000e+02 0.000000000000e+00 2.650000000000e+01 2.661670255077e-07 -4.685155780916e-09 0.000000000000e+00
7.500000000000e+02 0.000000000000e+00 2.650000000000e+01 2.665232469838e-07 -4.685066217477e-09 0.000000000000e+00
7.490000000000e+02 0.000000000000e+00 2.750000000000e+01 1.411326213759e-08 -4.872686438460e-09 0.000000000000e+00
7.500000000000e+02 0.000000000000e+00 2.750000000000e+01 1.413215076189e-08 -4.872611988765e-09 0.000000000000e+00
7.490000000000e+02 0.000000000000e+00 2.850000000000e+01 6.508421429788e-07 -5.317660153317e-09 0.000000000000e+00
7.500000000000e+02 0.000000000000e+00 2.850000000000e+01 6.517132784540e-07 -5.317622510328e-09 0.000000000000e+00
7.490000000000e+02 0.000000000000e+00 2.950000000000e+01 1.228560897646e-08 -5.761389394770e-09 0.000000000000e+00
7.500000000000e+02 0.000000000000e+00 2.950000000000e+01 1.230205296562e-08 -5.761388711115e-09 0.000000000000e+00
