VARIABLES = "X","Y","Z",VELOCITY1_X,VELOCITY1_Y,VELOCITY1_Z
ZONE T="0.000000000000e+00s", 
9.890000000000e+02 0.000000000000e+00 5.000000000000e-01 0.000000000000e+00 0.000000000000e+00 0.000000000000e+00
9.900000000000e+02 0.000000000000e+00 5.000000000000e-01 0.000000000000e+00 0.000000000000e+00 0.000000000000e+00
9.890000000000e+02 0.000000000000e+00 1.500000000000e+00 0.000000000000e+00 0.000000000000e+00 0.000000000000e+00
9.900000000000e+02 0.000000000000e+00 1.500000000000e+00 0.000000000000e+00 0.000000000000e+00 0.000000000000e+00
9.890000000000e+02 0.000000000000e+00 2.500000000000e+00 0.000000000000e+00 0.000000000000e+00 0.000000000000e+00
9.900000000000e+02 0.000000000000e+00 2.500000000000e+00 0.000000000000e+00 0.000000000000e+00 0.000000000000e+00
9.890000000000e+02 0.000000000000e+00 3.500000000000e+00 0.000000000000e+00 0.000000000000e+00 0.000000000000e+00
9.900000000000e+02 0.000000000000e+00 3.500000000000e+00 0.000000000000e+00 0.000000000000e+00 0.000000000000e+00
9.890000000000e+02 0.000000000000e+00 4.500000000000e+00 0.000000000000e+00 0.000000000000e+00 0.000000000000e+00
9.900000000000e+02 0.000000000000e+00 4.500000000000e+00 0.000000000000e+00 0.000000000000e+00 0.000000000000e+00
9.890000000000e+02 0.000000000000e+00 5.500000000000e+00 0.000000000000e+00 0.000000000000e+00 0.000000000000e+00
9.900000000000e+02 0.000000000000e+00 5.500000000000e+00 0.000000000000e+00 0.000000000000e+00 0.000000000000e+00
9.890000000000e+02 0.000000000000e+00 6.500000000000e+00 0.000000000000e+00 0.000000000000e+00 0.000000000000e+00
9.900000000000e+02 0.000000000000e+00 6.500000000000e+00 0.000000000000e+00 0.000000000000e+00 0.000000000000e+00
9.890000000000e+02 0.000000000000e+00 7.500000000000e+00 0.000000000000e+00 0.000000000000e+00 0.000000000000e+00
9.900000000000e+02 0.000000000000e+00 7.500000000000e+00 0.000000000000e+00 0.000000000000e+00 0.000000000000e+00
9.890000000000e+02 0.000000000000e+00 8.500000000000e+00 0.000000000000e+00 0.000000000000e+00 0.000000000000e+00
9.900000000000e+02 0.000000000000e+00 8.500000000000e+00 0.000000000000e+00 0.000000000000e+00 0.000000000000e+00
9.890000000000e+02 0.000000000000e+00 9.500000000000e+00 0.000000000000e+00 0.000000000000e+00 0.000000000000e+00
9.900000000000e+02 0.000000000000e+00 9.500000000000e+00 0.000000000000e+00 0.000000000000e+00 0.000000000000e+00
9.890000000000e+02 0.000000000000e+00 1.050000000000e+01 0.000000000000e+00 0.000000000000e+00 0.000000000000e+00
9.900000000000e+02 0.000000000000e+00 1.050000000000e+01 0.000000000000e+00 0.000000000000e+00 0.000000000000e+00
9.890000000000e+02 0.000000000000e+00 1.150000000000e+01 0.000000000000e+00 0.000000000000e+00 0.000000000000e+00
9.900000000000e+02 0.000000000000e+00 1.150000000000e+01 0.000000000000e+00 0.000000000000e+00 0.000000000000e+00
9.890000000000e+02 0.000000000000e+00 1.250000000000e+01 0.000000000000e+00 0.000000000000e+00 0.000000000000e+00
9.900000000000e+02 0.000000000000e+00 1.250000000000e+01 0.000000000000e+00 0.000000000000e+00 0.000000000000e+00
9.890000000000e+02 0.000000000000e+00 1.350000000000e+01 0.000000000000e+00 0.000000000000e+00 0.000000000000e+00
9.900000000000e+02 0.000000000000e+00 1.350000000000e+01 0.000000000000e+00 0.000000000000e+00 0.000000000000e+00
9.890000000000e+02 0.000000000000e+00 1.450000000000e+01 0.000000000000e+00 0.000000000000e+00 0.000000000000e+00
9.900000000000e+02 0.000000000000e+00 1.450000000000e+01 0.000000000000e+00 0.000000000000e+00 0.000000000000e+00
9.890000000000e+02 0.000000000000e+00 1.550000000000e+01 0.000000000000e+00 0.000000000000e+00 0.000000000000e+00
9.900000000000e+02 0.000000000000e+00 1.550000000000e+01 0.000000000000e+00 0.000000000000e+00 0.000000000000e+00
9.890000000000e+02 0.000000000000e+00 1.650000000000e+01 0.000000000000e+00 0.000000000000e+00 0.000000000000e+00
9.900000000000e+02 0.000000000000e+00 1.650000000000e+01 0.000000000000e+00 0.000000000000e+00 0.000000000000e+00
9.890000000000e+02 0.000000000000e+00 1.750000000000e+01 0.000000000000e+00 0.000000000000e+00 0.000000000000e+00
9.900000000000e+02 0.000000000000e+00 1.750000000000e+01 0.000000000000e+00 0.000000000000e+00 0.000000000000e+00
9.890000000000e+02 0.000000000000e+00 1.850000000000e+01 0.000000000000e+00 0.000000000000e+00 0.000000000000e+00
9.900000000000e+02 0.000000000000e+00 1.850000000000e+01 0.000000000000e+00 0.000000000000e+00 0.000000000000e+00
9.890000000000e+02 0.000000000000e+00 1.950000000000e+01 0.000000000000e+00 0.000000000000e+00 0.000000000000e+00
9.900000000000e+02 0.000000000000e+00 1.950000000000e+01 0.000000000000e+00 0.000000000000e+00 0.000000000000e+00
9.890000000000e+02 0.000000000000e+00 2.050000000000e+01 0.000000000000e+00 0.000000000000e+00 0.000000000000e+00
9.900000000000e+02 0.000000000000e+00 2.050000000000e+01 0.000000000000e+00 0.000000000000e+00 0.000000000000e+00
9.890000000000e+02 0.000000000000e+00 2.150000000000e+01 0.000000000000e+00 0.000000000000e+00 0.000000000000e+00
9.900000000000e+02 0.000000000000e+00 2.150000000000e+01 0.000000000000e+00 0.000000000000e+00 0.000000000000e+00
9.890000000000e+02 0.000000000000e+00 2.250000000000e+01 0.000000000000e+00 0.000000000000e+00 0.000000000000e+00
9.900000000000e+02 0.000000000000e+00 2.250000000000e+01 0.000000000000e+00 0.000000000000e+00 0.000000000000e+00
9.890000000000e+02 0.000000000000e+00 2.350000000000e+01 0.000000000000e+00 0.000000000000e+00 0.000000000000e+00
9.900000000000e+02 0.000000000000e+00 2.350000000000e+01 0.000000000000e+00 0.000000000000e+00 0.000000000000e+00
9.890000000000e+02 0.000000000000e+00 2.450000000000e+01 0.000000000000e+00 0.000000000000e+00 0.000000000000e+00
9.900000000000e+02 0.000000000000e+00 2.450000000000e+01 0.000000000000e+00 0.000000000000e+00 0.000000000000e+00
9.890000000000e+02 0.000000000000e+00 2.550000000000e+01 0.000000000000e+00 0.000000000000e+00 0.000000000000e+00
9.900000000000e+02 0.000000000000e+00 2.550000000000e+01 0.000000000000e+00 0.000000000000e+00 0.000000000000e+00
9.890000000000e+02 0.000000000000e+00 2.650000000000e+01 0.000000000000e+00 0.000000000000e+00 0.000000000000e+00
9.900000000000e+02 0.000000000000e+00 2.650000000000e+01 0.000000000000e+00 0.000000000000e+00 0.000000000000e+00
9.890000000000e+02 0.000000000000e+00 2.750000000000e+01 0.000000000000e+00 0.000000000000e+00 0.000000000000e+00
9.900000000000e+02 0.000000000000e+00 2.750000000000e+01 0.000000000000e+00 0.000000000000e+00 0.000000000000e+00
9.890000000000e+02 0.000000000000e+00 2.850000000000e+01 0.000000000000e+00 0.000000000000e+00 0.000000000000e+00
9.900000000000e+02 0.000000000000e+00 2.850000000000e+01 0.000000000000e+00 0.000000000000e+00 0.000000000000e+00
9.890000000000e+02 0.000000000000e+00 2.950000000000e+01 0.000000000000e+00 0.000000000000e+00 0.000000000000e+00
9.900000000000e+02 0.000000000000e+00 2.950000000000e+01 0.000000000000e+00 0.000000000000e+00 0.000000000000e+00
VARIABLES = "X","Y","Z",VELOCITY1_X,VELOCITY1_Y,VELOCITY1_Z
ZONE T="1.797693134862e+308s", 
9.890000000000e+02 0.000000000000e+00 5.000000000000e-01 4.790988052163e-08 -3.223366795455e-12 0.000000000000e+00
9.900000000000e+02 0.000000000000e+00 5.000000000000e-01 4.791580661050e-08 -2.930145778074e-12 0.000000000000e+00
9.890000000000e+02 0.000000000000e+00 1.500000000000e+00 3.402825966231e-09 -6.676160430053e-12 0.000000000000e+00
9.900000000000e+02 0.000000000000e+00 1.500000000000e+00 3.403247103831e-09 -6.068855394593e-12 0.000000000000e+00
9.890000000000e+02 0.000000000000e+00 2.500000000000e+00 1.914724670480e-10 -6.918985856620e-12 0.000000000000e+00
9.900000000000e+02 0.000000000000e+00 2.500000000000e+00 1.914964367091e-10 -6.289594936976e-12 0.000000000000e+00
9.890000000000e+02 0.000000000000e+00 3.500000000000e+00 4.720239184074e-08 -1.034748301221e-11 0.000000000000e+00
9.900000000000e+02 0.000000000000e+00 3.500000000000e+00 4.720867099588e-08 -9.406981706638e-12 0.000000000000e+00
9.890000000000e+02 0.000000000000e+00 4.500000000000e+00 1.553165373158e-08 -1.488769682280e-11 0.000000000000e+00
9.900000000000e+02 0.000000000000e+00 4.500000000000e+00 1.553372111884e-08 -1.353520749574e-11 0.000000000000e+00
9.890000000000e+02 0.000000000000e+00 5.500000000000e+00 6.026778511158e-08 -2.038445073125e-11 0.000000000000e+00
9.900000000000e+02 0.000000000000e+00 5.500000000000e+00 6.027582217195e-08 -1.853321885514e-11 0.000000000000e+00
9.890000000000e+02 0.000000000000e+00 6.500000000000e+00 8.481139604978e-10 -2.481966334131e-11 0.000000000000e+00
9.900000000000e+02 0.000000000000e+00 6.500000000000e+00 8.482279498964e-10 -2.256602282761e-11 0.000000000000e+00
9.890000000000e+02 0.000000000000e+00 7.500000000000e+00 5.961936261021e-07 -7.089914623081e-11 0.000000000000e+00
9.900000000000e+02 0.000000000000e+00 7.500000000000e+00 5.962782599857e-07 -6.447621602842e-11 0.000000000000e+00
9.890000000000e+02 0.000000000000e+00 8.500000000000e+00 7.177240674262e-08 -1.224679324045e-10 0.000000000000e+00
9.900000000000e+02 0.000000000000e+00 8.500000000000e+00 7.178260300649e-08 -1.113791702893e-10 0.000000000000e+00
9.890000000000e+02 0.000000000000e+00 9.500000000000e+00 2.222336543852e-08 -1.297567831497e-10 0.000000000000e+00
9.900000000000e+02 0.000000000000e+00 9.500000000000e+00 2.222654013762e-08 -1.180087293193e-10 0.000000000000e+00
9.890000000000e+02 0.000000000000e+00 1.050000000000e+01 1.421373787804e-09 -1.316180731093e-10 0.000000000000e+00
9.900000000000e+02 0.000000000000e+00 1.050000000000e+01 1.421584941595e-09 -1.197018260820e-10 0.000000000000e+00
9.890000000000e+02 0.000000000000e+00 1.150000000000e+01 6.439876438622e-08 -1.379934846006e-10 0.000000000000e+00
9.900000000000e+02 0.000000000000e+00 1.150000000000e+01 6.441025417001e-08 -1.255082982262e-10 0.000000000000e+00
9.890000000000e+02 0.000000000000e+00 1.250000000000e+01 1.537486354020e-07 -1.592171766287e-10 0.000000000000e+00
9.900000000000e+02 0.000000000000e+00 1.250000000000e+01 1.537761850502e-07 -1.448385532943e-10 0.000000000000e+00
9.890000000000e+02 0.000000000000e+00 1.350000000000e+01 1.629256931937e-09 -1.743713684556e-10 0.000000000000e+00
9.900000000000e+02 0.000000000000e+00 1.350000000000e+01 1.629558405064e-09 -1.586410572231e-10 0.000000000000e+00
9.890000000000e+02 0.000000000000e+00 1.450000000000e+01 1.071446071105e-06 -3.068043817831e-10 0.000000000000e+00
9.900000000000e+02 0.000000000000e+00 1.450000000000e+01 1.071689969097e-06 -2.794963218300e-10 0.000000000000e+00
9.890000000000e+02 0.000000000000e+00 1.550000000000e+01 2.542314152561e-08 -4.423048812822e-10 0.000000000000e+00
9.900000000000e+02 0.000000000000e+00 1.550000000000e+01 2.542897896625e-08 -4.031532378117e-10 0.000000000000e+00
9.890000000000e+02 0.000000000000e+00 1.650000000000e+01 1.447646700347e-06 -6.366493709811e-10 0.000000000000e+00
9.900000000000e+02 0.000000000000e+00 1.650000000000e+01 1.447999431570e-06 -5.807634984952e-10 0.000000000000e+00
9.890000000000e+02 0.000000000000e+00 1.750000000000e+01 3.132469210020e-09 -8.284240333473e-10 0.000000000000e+00
9.900000000000e+02 0.000000000000e+00 1.750000000000e+01 3.133345417173e-09 -7.560350459499e-10 0.000000000000e+00
9.890000000000e+02 0.000000000000e+00 1.850000000000e+01 2.429099994864e-08 -8.365471120916e-10 0.000000000000e+00
9.900000000000e+02 0.000000000000e+00 1.850000000000e+01 2.430456863627e-08 -7.635912850459e-10 0.000000000000e+00
9.890000000000e+02 0.000000000000e+00 1.950000000000e+01 3.490826517782e-09 -8.453827446062e-10 0.000000000000e+00
9.900000000000e+02 0.000000000000e+00 1.950000000000e+01 3.493023252972e-09 -7.718201654998e-10 0.000000000000e+00
9.890000000000e+02 0.000000000000e+00 2.050000000000e+01 2.904321803101e-08 -8.607830493061e-10 0.000000000000e+00
9.900000000000e+02 0.000000000000e+00 2.050000000000e+01 2.906922670402e-08 -7.862556574385e-10 0.000000000000e+00
9.890000000000e+02 0.000000000000e+00 2.150000000000e+01 1.257380402657e-08 -8.813156576364e-10 0.000000000000e+00
9.900000000000e+02 0.000000000000e+00 2.150000000000e+01 1.258563699158e-08 -8.055185956999e-10 0.000000000000e+00
9.890000000000e+02 0.000000000000e+00 2.250000000000e+01 1.255723630937e-08 -8.950172682880e-10 0.000000000000e+00
9.900000000000e+02 0.000000000000e+00 2.250000000000e+01 1.257030879337e-08 -8.184088928189e-10 0.000000000000e+00
9.890000000000e+02 0.000000000000e+00 2.350000000000e+01 5.527165150083e-07 -1.233283835602e-09 0.000000000000e+00
9.900000000000e+02 0.000000000000e+00 2.350000000000e+01 5.533442107695e-07 -1.137603295745e-09 0.000000000000e+00
9.890000000000e+02 0.000000000000e+00 2.450000000000e+01 1.011693369571e-07 -1.626668960198e-09 0.000000000000e+00
9.900000000000e+02 0.000000000000e+00 2.450000000000e+01 1.012855317524e-07 -1.508997561895e-09 0.000000000000e+00
9.890000000000e+02 0.000000000000e+00 2.550000000000e+01 4.534147285494e-09 -1.693466182198e-09 0.000000000000e+00
9.900000000000e+02 0.000000000000e+00 2.550000000000e+01 4.540367000426e-09 -1.572399022232e-09 0.000000000000e+00
9.890000000000e+02 0.000000000000e+00 2.650000000000e+01 3.747011918093e-07 -2.196743112881e-09 0.000000000000e+00
9.900000000000e+02 0.000000000000e+00 2.650000000000e+01 3.756988533379e-07 -2.077783707729e-09 0.000000000000e+00
9.890000000000e+02 0.000000000000e+00 2.750000000000e+01 1.988663536069e-08 -2.724830567607e-09 0.000000000000e+00
9.900000000000e+02 0.000000000000e+00 2.750000000000e+01 1.994145726566e-08 -2.608717103359e-09 0.000000000000e+00
9.890000000000e+02 0.000000000000e+00 2.850000000000e+01 9.217788109088e-07 -4.233891035266e-09 0.000000000000e+00
9.900000000000e+02 0.000000000000e+00 2.850000000000e+01 9.248360599376e-07 -4.175093040794e-09 0.000000000000e+00
9.890000000000e+02 0.000000000000e+00 2.950000000000e+01 1.740103119649e-08 -5.741625453129e-09 0.000000000000e+00
9.900000000000e+02 0.000000000000e+00 2.950000000000e+01 1.745886537039e-08 -5.740545783912e-09 0.000000000000e+00
