VARIABLES = "X","Y","Z",VELOCITY1_X,VELOCITY1_Y,VELOCITY1_Z
ZONE T="0.000000000000e+00s", 
8.990000000000e+02 0.000000000000e+00 5.000000000000e-01 0.000000000000e+00 0.000000000000e+00 0.000000000000e+00
9.000000000000e+02 0.000000000000e+00 5.000000000000e-01 0.000000000000e+00 0.000000000000e+00 0.000000000000e+00
8.990000000000e+02 0.000000000000e+00 1.500000000000e+00 0.000000000000e+00 0.000000000000e+00 0.000000000000e+00
9.000000000000e+02 0.000000000000e+00 1.500000000000e+00 0.000000000000e+00 0.000000000000e+00 0.000000000000e+00
8.990000000000e+02 0.000000000000e+00 2.500000000000e+00 0.000000000000e+00 0.000000000000e+00 0.000000000000e+00
9.000000000000e+02 0.000000000000e+00 2.500000000000e+00 0.000000000000e+00 0.000000000000e+00 0.000000000000e+00
8.990000000000e+02 0.000000000000e+00 3.500000000000e+00 0.000000000000e+00 0.000000000000e+00 0.000000000000e+00
9.000000000000e+02 0.000000000000e+00 3.500000000000e+00 0.000000000000e+00 0.000000000000e+00 0.000000000000e+00
8.990000000000e+02 0.000000000000e+00 4.500000000000e+00 0.000000000000e+00 0.000000000000e+00 0.000000000000e+00
9.000000000000e+02 0.000000000000e+00 4.500000000000e+00 0.000000000000e+00 0.000000000000e+00 0.000000000000e+00
8.990000000000e+02 0.000000000000e+00 5.500000000000e+00 0.000000000000e+00 0.000000000000e+00 0.000000000000e+00
9.000000000000e+02 0.000000000000e+00 5.500000000000e+00 0.000000000000e+00 0.000000000000e+00 0.000000000000e+00
8.990000000000e+02 0.000000000000e+00 6.500000000000e+00 0.000000000000e+00 0.000000000000e+00 0.000000000000e+00
9.000000000000e+02 0.000000000000e+00 6.500000000000e+00 0.000000000000e+00 0.000000000000e+00 0.000000000000e+00
8.990000000000e+02 0.000000000000e+00 7.500000000000e+00 0.000000000000e+00 0.000000000000e+00 0.000000000000e+00
9.000000000000e+02 0.000000000000e+00 7.500000000000e+00 0.000000000000e+00 0.000000000000e+00 0.000000000000e+00
8.990000000000e+02 0.000000000000e+00 8.500000000000e+00 0.000000000000e+00 0.000000000000e+00 0.000000000000e+00
9.000000000000e+02 0.000000000000e+00 8.500000000000e+00 0.000000000000e+00 0.000000000000e+00 0.000000000000e+00
8.990000000000e+02 0.000000000000e+00 9.500000000000e+00 0.000000000000e+00 0.000000000000e+00 0.000000000000e+00
9.000000000000e+02 0.000000000000e+00 9.500000000000e+00 0.000000000000e+00 0.000000000000e+00 0.000000000000e+00
8.990000000000e+02 0.000000000000e+00 1.050000000000e+01 0.000000000000e+00 0.000000000000e+00 0.000000000000e+00
9.000000000000e+02 0.000000000000e+00 1.050000000000e+01 0.000000000000e+00 0.000000000000e+00 0.000000000000e+00
8.990000000000e+02 0.000000000000e+00 1.150000000000e+01 0.000000000000e+00 0.000000000000e+00 0.000000000000e+00
9.000000000000e+02 0.000000000000e+00 1.150000000000e+01 0.000000000000e+00 0.000000000000e+00 0.000000000000e+00
8.990000000000e+02 0.000000000000e+00 1.250000000000e+01 0.000000000000e+00 0.000000000000e+00 0.000000000000e+00
9.000000000000e+02 0.000000000000e+00 1.250000000000e+01 0.000000000000e+00 0.000000000000e+00 0.000000000000e+00
8.990000000000e+02 0.000000000000e+00 1.350000000000e+01 0.000000000000e+00 0.000000000000e+00 0.000000000000e+00
9.000000000000e+02 0.000000000000e+00 1.350000000000e+01 0.000000000000e+00 0.000000000000e+00 0.000000000000e+00
8.990000000000e+02 0.000000000000e+00 1.450000000000e+01 0.000000000000e+00 0.000000000000e+00 0.000000000000e+00
9.000000000000e+02 0.000000000000e+00 1.450000000000e+01 0.000000000000e+00 0.000000000000e+00 0.000000000000e+00
8.990000000000e+02 0.000000000000e+00 1.550000000000e+01 0.000000000000e+00 0.000000000000e+00 0.000000000000e+00
9.000000000000e+02 0.000000000000e+00 1.550000000000e+01 0.000000000000e+00 0.000000000000e+00 0.000000000000e+00
8.990000000000e+02 0.000000000000e+00 1.650000000000e+01 0.000000000000e+00 0.000000000000e+00 0.000000000000e+00
9.000000000000e+02 0.000000000000e+00 1.650000000000e+01 0.000000000000e+00 0.000000000000e+00 0.000000000000e+00
8.990000000000e+02 0.000000000000e+00 1.750000000000e+01 0.000000000000e+00 0.000000000000e+00 0.000000000000e+00
9.000000000000e+02 0.000000000000e+00 1.750000000000e+01 0.000000000000e+00 0.000000000000e+00 0.000000000000e+00
8.990000000000e+02 0.000000000000e+00 1.850000000000e+01 0.000000000000e+00 0.000000000000e+00 0.000000000000e+00
9.000000000000e+02 0.000000000000e+00 1.850000000000e+01 0.000000000000e+00 0.000000000000e+00 0.000000000000e+00
8.990000000000e+02 0.000000000000e+00 1.950000000000e+01 0.000000000000e+00 0.000000000000e+00 0.000000000000e+00
9.000000000000e+02 0.000000000000e+00 1.950000000000e+01 0.000000000000e+00 0.000000000000e+00 0.000000000000e+00
8.990000000000e+02 0.000000000000e+00 2.050000000000e+01 0.000000000000e+00 0.000000000000e+00 0.000000000000e+00
9.000000000000e+02 0.000000000000e+00 2.050000000000e+01 0.000000000000e+00 0.000000000000e+00 0.000000000000e+00
8.990000000000e+02 0.000000000000e+00 2.150000000000e+01 0.000000000000e+00 0.000000000000e+00 0.000000000000e+00
9.000000000000e+02 0.000000000000e+00 2.150000000000e+01 0.000000000000e+00 0.000000000000e+00 0.000000000000e+00
8.990000000000e+02 0.000000000000e+00 2.250000000000e+01 0.000000000000e+00 0.000000000000e+00 0.000000000000e+00
9.000000000000e+02 0.000000000000e+00 2.250000000000e+01 0.000000000000e+00 0.000000000000e+00 0.000000000000e+00
8.990000000000e+02 0.000000000000e+00 2.350000000000e+01 0.000000000000e+00 0.000000000000e+00 0.000000000000e+00
9.000000000000e+02 0.000000000000e+00 2.350000000000e+01 0.000000000000e+00 0.000000000000e+00 0.000000000000e+00
8.990000000000e+02 0.000000000000e+00 2.450000000000e+01 0.000000000000e+00 0.000000000000e+00 0.000000000000e+00
9.000000000000e+02 0.000000000000e+00 2.450000000000e+01 0.000000000000e+00 0.000000000000e+00 0.000000000000e+00
8.990000000000e+02 0.000000000000e+00 2.550000000000e+01 0.000000000000e+00 0.000000000000e+00 0.000000000000e+00
9.000000000000e+02 0.000000000000e+00 2.550000000000e+01 0.000000000000e+00 0.000000000000e+00 0.000000000000e+00
8.990000000000e+02 0.000000000000e+00 2.650000000000e+01 0.000000000000e+00 0.000000000000e+00 0.000000000000e+00
9.000000000000e+02 0.000000000000e+00 2.650000000000e+01 0.000000000000e+00 0.000000000000e+00 0.000000000000e+00
8.990000000000e+02 0.000000000000e+00 2.750000000000e+01 0.000000000000e+00 0.000000000000e+00 0.000000000000e+00
9.000000000000e+02 0.000000000000e+00 2.750000000000e+01 0.000000000000e+00 0.000000000000e+00 0.000000000000e+00
8.990000000000e+02 0.000000000000e+00 2.850000000000e+01 0.000000000000e+00 0.000000000000e+00 0.000000000000e+00
9.000000000000e+02 0.000000000000e+00 2.850000000000e+01 0.000000000000e+00 0.000000000000e+00 0.000000000000e+00
8.990000000000e+02 0.000000000000e+00 2.950000000000e+01 0.000000000000e+00 0.000000000000e+00 0.000000000000e+00
9.000000000000e+02 0.000000000000e+00 2.950000000000e+01 0.000000000000e+00 0.000000000000e+00 0.000000000000e+00
VARIABLES = "X","Y","Z",VELOCITY1_X,VELOCITY1_Y,VELOCITY1_Z
ZONE T="1.797693134862e+308s", 
8.990000000000e+02 0.000000000000e+00 5.000000000000e-01 4.545221576099e-08 -2.102894233179e-11 0.000000000000e+00
9.000000000000e+02 0.000000000000e+00 5.000000000000e-01 4.549410331779e-08 -2.093330591926e-11 0.000000000000e+00
8.990000000000e+02 0.000000000000e+00 1.500000000000e+00 3.228214805473e-09 -4.355233195295e-11 0.000000000000e+00
9.000000000000e+02 0.000000000000e+00 1.500000000000e+00 3.231190355370e-09 -4.335428534840e-11 0.000000000000e+00
8.990000000000e+02 0.000000000000e+00 2.500000000000e+00 1.815842549616e-10 -4.513190826271e-11 0.000000000000e+00
9.000000000000e+02 0.000000000000e+00 2.500000000000e+00 1.817522240514e-10 -4.492671668882e-11 0.000000000000e+00
8.990000000000e+02 0.000000000000e+00 3.500000000000e+00 4.467916664716e-08 -6.636447128775e-11 0.000000000000e+00
9.000000000000e+02 0.000000000000e+00 3.500000000000e+00 4.472130572185e-08 -6.607223799711e-11 0.000000000000e+00
8.990000000000e+02 0.000000000000e+00 4.500000000000e+00 1.470112906045e-08 -9.447258427030e-11 0.000000000000e+00
9.000000000000e+02 0.000000000000e+00 4.500000000000e+00 1.471499684378e-08 -9.406520502594e-11 0.000000000000e+00
8.990000000000e+02 0.000000000000e+00 5.500000000000e+00 5.704194141328e-08 -1.284512094604e-10 0.000000000000e+00
9.000000000000e+02 0.000000000000e+00 5.500000000000e+00 5.709577739897e-08 -1.279050114117e-10 0.000000000000e+00
8.990000000000e+02 0.000000000000e+00 6.500000000000e+00 8.025371430343e-10 -1.558524462640e-10 0.000000000000e+00
9.000000000000e+02 0.000000000000e+00 6.500000000000e+00 8.032961191460e-10 -1.551944146339e-10 0.000000000000e+00
8.990000000000e+02 0.000000000000e+00 7.500000000000e+00 5.632363019373e-07 -4.273814884707e-10 0.000000000000e+00
9.000000000000e+02 0.000000000000e+00 7.500000000000e+00 5.637767815138e-07 -4.257079752973e-10 0.000000000000e+00
8.990000000000e+02 0.000000000000e+00 8.500000000000e+00 6.780352559406e-08 -7.311826967671e-10 0.000000000000e+00
9.000000000000e+02 0.000000000000e+00 8.500000000000e+00 6.786859959615e-08 -7.283734400781e-10 0.000000000000e+00
8.990000000000e+02 0.000000000000e+00 9.500000000000e+00 2.099143168854e-08 -7.739687771681e-10 0.000000000000e+00
9.000000000000e+02 0.000000000000e+00 9.500000000000e+00 2.101160045802e-08 -7.710004166073e-10 0.000000000000e+00
8.990000000000e+02 0.000000000000e+00 1.050000000000e+01 1.341190603766e-09 -7.847620870382e-10 0.000000000000e+00
9.000000000000e+02 0.000000000000e+00 1.050000000000e+01 1.342489502347e-09 -7.817543151810e-10 0.000000000000e+00
8.990000000000e+02 0.000000000000e+00 1.150000000000e+01 6.043616067630e-08 -8.159930948265e-10 0.000000000000e+00
9.000000000000e+02 0.000000000000e+00 1.150000000000e+01 6.049712771686e-08 -8.129030511608e-10 0.000000000000e+00
8.990000000000e+02 0.000000000000e+00 1.250000000000e+01 1.442687118207e-07 -9.195814569669e-10 0.000000000000e+00
9.000000000000e+02 0.000000000000e+00 1.250000000000e+01 1.444143885058e-07 -9.162208751117e-10 0.000000000000e+00
8.990000000000e+02 0.000000000000e+00 1.350000000000e+01 1.527440943354e-09 -9.933944919740e-10 0.000000000000e+00
9.000000000000e+02 0.000000000000e+00 1.350000000000e+01 1.528992273507e-09 -9.898419165699e-10 0.000000000000e+00
8.990000000000e+02 0.000000000000e+00 1.450000000000e+01 9.980097243397e-07 -1.523132554374e-09 0.000000000000e+00
9.000000000000e+02 0.000000000000e+00 1.450000000000e+01 9.990661128137e-07 -1.518752649085e-09 0.000000000000e+00
8.990000000000e+02 0.000000000000e+00 1.550000000000e+01 2.367669188195e-08 -2.064657032757e-09 0.000000000000e+00
9.000000000000e+02 0.000000000000e+00 1.550000000000e+01 2.370176971155e-08 -2.059432709764e-09 0.000000000000e+00
8.990000000000e+02 0.000000000000e+00 1.650000000000e+01 1.346620374611e-06 -2.794490526139e-09 0.000000000000e+00
9.000000000000e+02 0.000000000000e+00 1.650000000000e+01 1.348053005632e-06 -2.788225421893e-09 0.000000000000e+00
8.990000000000e+02 0.000000000000e+00 1.750000000000e+01 2.907019160026e-09 -3.513336392780e-09 0.000000000000e+00
9.000000000000e+02 0.000000000000e+00 1.750000000000e+01 2.910133502970e-09 -3.506048608704e-09 0.000000000000e+00
8.990000000000e+02 0.000000000000e+00 1.850000000000e+01 2.213280381615e-08 -3.527470848423e-09 0.000000000000e+00
9.000000000000e+02 0.000000000000e+00 1.850000000000e+01 2.215781275549e-08 -3.520187022149e-09 0.000000000000e+00
8.990000000000e+02 0.000000000000e+00 1.950000000000e+01 3.166452608047e-09 -3.541856910974e-09 0.000000000000e+00
9.000000000000e+02 0.000000000000e+00 1.950000000000e+01 3.170075781840e-09 -3.534580128051e-09 0.000000000000e+00
8.990000000000e+02 0.000000000000e+00 2.050000000000e+01 2.590762195490e-08 -3.559232130519e-09 0.000000000000e+00
9.000000000000e+02 0.000000000000e+00 2.050000000000e+01 2.593865462553e-08 -3.551987835279e-09 0.000000000000e+00
8.990000000000e+02 0.000000000000e+00 2.150000000000e+01 1.118684984242e-08 -3.581530337461e-09 0.000000000000e+00
9.000000000000e+02 0.000000000000e+00 2.150000000000e+01 1.120034250495e-08 -3.574331280608e-09 0.000000000000e+00
8.990000000000e+02 0.000000000000e+00 2.250000000000e+01 1.111228882945e-08 -3.595117115827e-09 0.000000000000e+00
9.000000000000e+02 0.000000000000e+00 2.250000000000e+01 1.112587661606e-08 -3.587950498269e-09 0.000000000000e+00
8.990000000000e+02 0.000000000000e+00 2.350000000000e+01 4.867568637060e-07 -3.902442163784e-09 0.000000000000e+00
9.000000000000e+02 0.000000000000e+00 2.350000000000e+01 4.873592772571e-07 -3.896116927938e-09 0.000000000000e+00
8.990000000000e+02 0.000000000000e+00 2.450000000000e+01 8.907246656821e-08 -4.257982971091e-09 0.000000000000e+00
9.000000000000e+02 0.000000000000e+00 2.450000000000e+01 8.918274564626e-08 -4.252633651946e-09 0.000000000000e+00
8.990000000000e+02 0.000000000000e+00 2.550000000000e+01 3.976777392664e-09 -4.315508566926e-09 0.000000000000e+00
9.000000000000e+02 0.000000000000e+00 2.550000000000e+01 3.981721788846e-09 -4.310319059710e-09 0.000000000000e+00
8.990000000000e+02 0.000000000000e+00 2.650000000000e+01 3.214417898531e-07 -4.522084934453e-09 0.000000000000e+00
9.000000000000e+02 0.000000000000e+00 2.650000000000e+01 3.218511715544e-07 -4.517614484823e-09 0.000000000000e+00
8.990000000000e+02 0.000000000000e+00 2.750000000000e+01 1.704476829926e-08 -4.737015544330e-09 0.000000000000e+00
9.000000000000e+02 0.000000000000e+00 2.750000000000e+01 1.706649262002e-08 -4.733294831961e-09 0.000000000000e+00
8.990000000000e+02 0.000000000000e+00 2.850000000000e+01 7.861787429763e-07 -5.249272423258e-09 0.000000000000e+00
9.000000000000e+02 0.000000000000e+00 2.850000000000e+01 7.871847473048e-07 -5.247397112154e-09 0.000000000000e+00
8.990000000000e+02 0.000000000000e+00 2.950000000000e+01 1.484032195247e-08 -5.760145040777e-09 0.000000000000e+00
9.000000000000e+02 0.000000000000e+00 2.950000000000e+01 1.485931273811e-08 -5.760110918125e-09 0.000000000000e+00
