 TITLE = "Profiles along polylines"
 VARIABLES = "DIST" "SATURATION1" 
 ZONE T="TIME=0.000000000000e+00"
0.000000000000e+00 1.000000000000e+00 
5.870104451498e-01 1.000000000000e+00 
1.168150789010e+00 1.000000000000e+00 
1.743479729825e+00 1.000000000000e+00 
2.313055380762e+00 1.000000000000e+00 
2.876935273408e+00 1.000000000000e+00 
3.435176365294e+00 1.000000000000e+00 
3.987835047236e+00 1.000000000000e+00 
4.534967142357e+00 1.000000000000e+00 
5.076627917461e+00 1.000000000000e+00 
5.612872085824e+00 1.000000000000e+00 
6.143753810163e+00 1.000000000000e+00 
6.669326717615e+00 1.000000000000e+00 
7.189643898175e+00 1.000000000000e+00 
7.704757907243e+00 1.000000000000e+00 
8.214720776254e+00 1.000000000000e+00 
8.719584014911e+00 1.000000000000e+00 
9.219398621660e+00 1.000000000000e+00 
9.714215085540e+00 1.000000000000e+00 
1.020408338451e+01 1.000000000000e+00 
1.068905299897e+01 1.000000000000e+00 
1.116917291825e+01 1.000000000000e+00 
1.164449163786e+01 1.000000000000e+00 
1.211505716936e+01 1.000000000000e+00 
1.258091704590e+01 1.000000000000e+00 
1.304211832362e+01 1.000000000000e+00 
1.349870758703e+01 1.000000000000e+00 
1.395073095844e+01 1.000000000000e+00 
1.439823409895e+01 1.000000000000e+00 
1.484126220542e+01 1.000000000000e+00 
1.527986002789e+01 1.000000000000e+00 
1.571407187434e+01 1.000000000000e+00 
1.614394160322e+01 1.000000000000e+00 
1.656951263238e+01 1.000000000000e+00 
1.699082795193e+01 1.000000000000e+00 
1.740793012051e+01 1.000000000000e+00 
1.782086126570e+01 1.000000000000e+00 
1.822966309670e+01 1.000000000000e+00 
1.863437691268e+01 1.000000000000e+00 
1.903504359047e+01 1.000000000000e+00 
1.943170360126e+01 1.000000000000e+00 
1.982439701443e+01 1.000000000000e+00 
2.021316349346e+01 1.000000000000e+00 
2.059804230795e+01 1.000000000000e+00 
2.097907233341e+01 1.000000000000e+00 
2.135629205906e+01 1.000000000000e+00 
2.172973958734e+01 1.000000000000e+00 
2.209945263757e+01 1.000000000000e+00 
2.246546855765e+01 1.000000000000e+00 
2.282782431917e+01 1.000000000000e+00 
2.318655652091e+01 1.000000000000e+00 
2.354170140024e+01 1.000000000000e+00 
2.389329483225e+01 1.000000000000e+00 
2.424137233281e+01 1.000000000000e+00 
2.458596905759e+01 1.000000000000e+00 
2.492711981332e+01 1.000000000000e+00 
2.526485906059e+01 1.000000000000e+00 
2.559922091678e+01 1.000000000000e+00 
2.593023915458e+01 1.000000000000e+00 
2.625794720904e+01 1.000000000000e+00 
2.658237818411e+01 1.000000000000e+00 
2.690356485117e+01 1.000000000000e+00 
2.722153965161e+01 1.000000000000e+00 
2.753633470324e+01 1.000000000000e+00 
2.784798180276e+01 1.000000000000e+00 
2.815651243212e+01 1.000000000000e+00 
2.846195775696e+01 1.000000000000e+00 
2.876434862800e+01 1.000000000000e+00 
2.906371559222e+01 1.000000000000e+00 
2.936008888632e+01 1.000000000000e+00 
2.965349844695e+01 1.000000000000e+00 
2.994397391269e+01 1.000000000000e+00 
3.023154462176e+01 1.000000000000e+00 
3.051623962214e+01 1.000000000000e+00 
3.079808767322e+01 1.000000000000e+00 
3.107711724341e+01 1.000000000000e+00 
3.135335651994e+01 1.000000000000e+00 
3.162683340262e+01 1.000000000000e+00 
3.189757551279e+01 1.000000000000e+00 
3.216561020377e+01 1.000000000000e+00 
3.243096454952e+01 1.000000000000e+00 
3.269366535024e+01 1.000000000000e+00 
3.295373914191e+01 1.000000000000e+00 
3.321121219744e+01 1.000000000000e+00 
3.346611052380e+01 1.000000000000e+00 
3.371845986730e+01 1.000000000000e+00 
3.396828571874e+01 1.000000000000e+00 
3.421561331035e+01 1.000000000000e+00 
3.446046762505e+01 1.000000000000e+00 
3.470287339729e+01 1.000000000000e+00 
3.494285510986e+01 1.000000000000e+00 
3.518043700691e+01 1.000000000000e+00 
3.541564308728e+01 1.000000000000e+00 
3.564849710360e+01 1.000000000000e+00 
3.587902257706e+01 1.000000000000e+00 
3.610724279709e+01 1.000000000000e+00 
3.633318081799e+01 1.000000000000e+00 
3.655685945957e+01 1.000000000000e+00 
3.677830131170e+01 1.000000000000e+00 
3.699752874307e+01 1.000000000000e+00 
3.721456390146e+01 1.000000000000e+00 
3.742942871004e+01 1.000000000000e+00 
3.764214487180e+01 1.000000000000e+00 
3.785273386982e+01 1.000000000000e+00 
3.806121697578e+01 1.000000000000e+00 
3.826761525399e+01 1.000000000000e+00 
3.847194955000e+01 1.000000000000e+00 
3.867424050154e+01 1.000000000000e+00 
3.887450854416e+01 1.000000000000e+00 
3.907277390645e+01 1.000000000000e+00 
3.926905661414e+01 1.000000000000e+00 
3.946337649433e+01 1.000000000000e+00 
3.965575317905e+01 1.000000000000e+00 
3.984620609817e+01 1.000000000000e+00 
4.003475448512e+01 1.000000000000e+00 
4.022141738721e+01 1.000000000000e+00 
4.040621366003e+01 1.000000000000e+00 
4.058916197154e+01 1.000000000000e+00 
4.077028080162e+01 1.000000000000e+00 
4.094958844186e+01 1.000000000000e+00 
4.112710300326e+01 1.000000000000e+00 
4.130284241994e+01 1.000000000000e+00 
4.147682444440e+01 1.000000000000e+00 
4.164906664717e+01 1.000000000000e+00 
4.181958642849e+01 1.000000000000e+00 
4.198840101358e+01 1.000000000000e+00 
4.215552745206e+01 1.000000000000e+00 
4.232098262548e+01 1.000000000000e+00 
4.248478324662e+01 1.000000000000e+00 
4.264694586287e+01 1.000000000000e+00 
4.280748685528e+01 1.000000000000e+00 
4.296642243838e+01 1.000000000000e+00 
4.312376866238e+01 1.000000000000e+00 
4.327954142159e+01 1.000000000000e+00 
4.343375645294e+01 1.000000000000e+00 
4.358642933514e+01 1.000000000000e+00 
4.373757549184e+01 1.000000000000e+00 
4.388721018651e+01 1.000000000000e+00 
4.403534853386e+01 1.000000000000e+00 
4.418200549861e+01 1.000000000000e+00 
4.432719589038e+01 1.000000000000e+00 
4.447093437909e+01 1.000000000000e+00 
4.461323548534e+01 1.000000000000e+00 
4.475411357948e+01 1.000000000000e+00 
4.489358289262e+01 1.000000000000e+00 
4.503165751129e+01 1.000000000000e+00 
4.516835138443e+01 1.000000000000e+00 
4.530367831790e+01 1.000000000000e+00 
4.543765198153e+01 1.000000000000e+00 
4.557028591168e+01 1.000000000000e+00 
4.570159350173e+01 1.000000000000e+00 
4.583158801313e+01 1.000000000000e+00 
4.596028257790e+01 1.000000000000e+00 
4.608769019726e+01 1.000000000000e+00 
4.621382374399e+01 1.000000000000e+00 
4.633869595776e+01 1.000000000000e+00 
4.646231944592e+01 1.000000000000e+00 
4.658470669613e+01 1.000000000000e+00 
4.670587007374e+01 1.000000000000e+00 
4.682582182039e+01 1.000000000000e+00 
4.694457405235e+01 1.000000000000e+00 
4.706213876301e+01 1.000000000000e+00 
4.717852782535e+01 1.000000000000e+00 
4.729375299423e+01 1.000000000000e+00 
4.740782591300e+01 1.000000000000e+00 
4.752075810333e+01 1.000000000000e+00 
4.763256097182e+01 1.000000000000e+00 
4.774324581220e+01 1.000000000000e+00 
4.785282380358e+01 1.000000000000e+00 
4.796130601263e+01 1.000000000000e+00 
4.806870340003e+01 1.000000000000e+00 
4.817502681425e+01 1.000000000000e+00 
4.828028699402e+01 1.000000000000e+00 
4.838449457434e+01 1.000000000000e+00 
4.848766007648e+01 1.000000000000e+00 
4.858979392242e+01 1.000000000000e+00 
4.869090643273e+01 1.000000000000e+00 
4.879100781637e+01 1.000000000000e+00 
4.889010818521e+01 1.000000000000e+00 
4.898821755173e+01 1.000000000000e+00 
4.908534582302e+01 1.000000000000e+00 
4.918150281090e+01 1.000000000000e+00 
4.927669822982e+01 1.000000000000e+00 
4.937094169467e+01 1.000000000000e+00 
4.946424272674e+01 1.000000000000e+00 
4.955661074807e+01 1.000000000000e+00 
4.964805508619e+01 1.000000000000e+00 
4.973858498134e+01 1.000000000000e+00 
4.982820957952e+01 1.000000000000e+00 
4.991693793441e+01 1.000000000000e+00 
5.000477900513e+01 1.000000000000e+00 
5.009174166220e+01 1.000000000000e+00 
5.017783469342e+01 1.000000000000e+00 
5.026306679729e+01 1.000000000000e+00 
5.034744658083e+01 1.000000000000e+00 
5.043098256532e+01 1.000000000000e+00 
5.051368318814e+01 1.000000000000e+00 
5.059555680435e+01 1.000000000000e+00 
5.067661168431e+01 1.000000000000e+00 
5.075685601533e+01 1.000000000000e+00 
5.083629790336e+01 1.000000000000e+00 
5.091494537457e+01 1.000000000000e+00 
5.099280636884e+01 1.000000000000e+00 
5.106988874950e+01 1.000000000000e+00 
5.114620030911e+01 1.000000000000e+00 
5.122174875440e+01 1.000000000000e+00 
5.129654171632e+01 1.000000000000e+00 
5.137058674720e+01 1.000000000000e+00 
5.144389132669e+01 1.000000000000e+00 
5.151646286296e+01 1.000000000000e+00 
5.158830868202e+01 1.000000000000e+00 
5.165943604158e+01 1.000000000000e+00 
5.172985212829e+01 1.000000000000e+00 
5.179956405512e+01 1.000000000000e+00 
5.186857886278e+01 1.000000000000e+00 
5.193690352121e+01 1.000000000000e+00 
5.200454493503e+01 1.000000000000e+00 
5.207150993669e+01 1.000000000000e+00 
5.213780528793e+01 1.000000000000e+00 
5.220343768520e+01 1.000000000000e+00 
5.226841375694e+01 1.000000000000e+00 
5.233274006904e+01 1.000000000000e+00 
5.239642311780e+01 1.000000000000e+00 
5.245946933558e+01 1.000000000000e+00 
5.252188509188e+01 1.000000000000e+00 
5.258367669068e+01 1.000000000000e+00 
5.264485037160e+01 1.000000000000e+00 
5.270541231541e+01 1.000000000000e+00 
5.276536864094e+01 1.000000000000e+00 
5.282472540242e+01 1.000000000000e+00 
5.288348859877e+01 1.000000000000e+00 
5.294166416273e+01 1.000000000000e+00 
5.299925796983e+01 1.000000000000e+00 
5.305627584002e+01 1.000000000000e+00 
5.311272353041e+01 1.000000000000e+00 
5.316860674471e+01 1.000000000000e+00 
5.322393112608e+01 1.000000000000e+00 
5.327870226254e+01 1.000000000000e+00 
5.333292568789e+01 1.000000000000e+00 
5.338660687891e+01 1.000000000000e+00 
5.343975126043e+01 1.000000000000e+00 
5.349236419825e+01 1.000000000000e+00 
5.354445100440e+01 1.000000000000e+00 
5.359601694229e+01 1.000000000000e+00 
5.364706721946e+01 1.000000000000e+00 
5.369760699289e+01 1.000000000000e+00 
5.374764136991e+01 1.000000000000e+00 
5.379717540517e+01 1.000000000000e+00 
5.384621410165e+01 1.000000000000e+00 
5.389476241171e+01 1.000000000000e+00 
5.394282523804e+01 1.000000000000e+00 
5.399040743473e+01 1.000000000000e+00 
5.403751380815e+01 1.000000000000e+00 
5.408414911801e+01 1.000000000000e+00 
5.413031807408e+01 1.000000000000e+00 
5.417602534143e+01 1.000000000000e+00 
5.422127553706e+01 1.000000000000e+00 
5.426607323102e+01 1.000000000000e+00 
5.431042294717e+01 1.000000000000e+00 
5.435432916428e+01 1.000000000000e+00 
5.439779632085e+01 1.000000000000e+00 
5.444082880791e+01 1.000000000000e+00 
5.448343096979e+01 1.000000000000e+00 
5.452560710930e+01 1.000000000000e+00 
5.456736148841e+01 1.000000000000e+00 
5.460869832099e+01 1.000000000000e+00 
5.464962178599e+01 1.000000000000e+00 
5.469013601585e+01 1.000000000000e+00 
5.473024510163e+01 1.000000000000e+00 
5.476995309773e+01 1.000000000000e+00 
5.480926401467e+01 1.000000000000e+00 
5.484818182384e+01 1.000000000000e+00 
5.488671045437e+01 1.000000000000e+00 
5.492485379792e+01 1.000000000000e+00 
5.496261570951e+01 1.000000000000e+00 
5.500000000000e+01 1.000000000000e+00 
 TITLE = "Profiles along polylines"
 VARIABLES = "DIST" "SATURATION1" 
 ZONE T="TIME=1.797693134862e+308"
0.000000000000e+00 1.000000000000e+00 
5.870104451498e-01 1.000000000000e+00 
1.168150789010e+00 1.000000000000e+00 
1.743479729825e+00 1.000000000000e+00 
2.313055380762e+00 1.000000000000e+00 
2.876935273408e+00 1.000000000000e+00 
3.435176365294e+00 1.000000000000e+00 
3.987835047236e+00 1.000000000000e+00 
4.534967142357e+00 1.000000000000e+00 
5.076627917461e+00 1.000000000000e+00 
5.612872085824e+00 1.000000000000e+00 
6.143753810163e+00 1.000000000000e+00 
6.669326717615e+00 1.000000000000e+00 
7.189643898175e+00 1.000000000000e+00 
7.704757907243e+00 1.000000000000e+00 
8.214720776254e+00 1.000000000000e+00 
8.719584014911e+00 1.000000000000e+00 
9.219398621660e+00 1.000000000000e+00 
9.714215085540e+00 1.000000000000e+00 
1.020408338451e+01 1.000000000000e+00 
1.068905299897e+01 1.000000000000e+00 
1.116917291825e+01 1.000000000000e+00 
1.164449163786e+01 1.000000000000e+00 
1.211505716936e+01 1.000000000000e+00 
1.258091704590e+01 1.000000000000e+00 
1.304211832362e+01 1.000000000000e+00 
1.349870758703e+01 1.000000000000e+00 
1.395073095844e+01 1.000000000000e+00 
1.439823409895e+01 1.000000000000e+00 
1.484126220542e+01 1.000000000000e+00 
1.527986002789e+01 1.000000000000e+00 
1.571407187434e+01 1.000000000000e+00 
1.614394160322e+01 1.000000000000e+00 
1.656951263238e+01 1.000000000000e+00 
1.699082795193e+01 1.000000000000e+00 
1.740793012051e+01 1.000000000000e+00 
1.782086126570e+01 1.000000000000e+00 
1.822966309670e+01 1.000000000000e+00 
1.863437691268e+01 1.000000000000e+00 
1.903504359047e+01 1.000000000000e+00 
1.943170360126e+01 1.000000000000e+00 
1.982439701443e+01 1.000000000000e+00 
2.021316349346e+01 1.000000000000e+00 
2.059804230795e+01 1.000000000000e+00 
2.097907233341e+01 1.000000000000e+00 
2.135629205906e+01 1.000000000000e+00 
2.172973958734e+01 1.000000000000e+00 
2.209945263757e+01 9.971963373677e-01 
2.246546855765e+01 9.190281445877e-01 
2.282782431917e+01 8.467221596121e-01 
2.318655652091e+01 7.889145307426e-01 
2.354170140024e+01 7.427543082729e-01 
2.389329483225e+01 7.052440493832e-01 
2.424137233281e+01 6.741559914460e-01 
2.458596905759e+01 6.479218687597e-01 
2.492711981332e+01 6.254349897548e-01 
2.526485906059e+01 6.059006350352e-01 
2.559922091678e+01 5.887360208511e-01 
2.593023915458e+01 5.735048209165e-01 
2.625794720904e+01 5.598739941631e-01 
2.658237818411e+01 5.475848390684e-01 
2.690356485117e+01 5.364332032544e-01 
2.722153965161e+01 5.262556819170e-01 
2.753633470324e+01 5.169198086041e-01 
2.784798180276e+01 5.083169589499e-01 
2.815651243212e+01 5.003571319290e-01 
2.846195775696e+01 4.929650537375e-01 
2.876434862800e+01 4.860772282182e-01 
2.906371559222e+01 4.796396750537e-01 
2.936008888632e+01 4.736061754112e-01 
2.965349844695e+01 4.679368957630e-01 
2.994397391269e+01 4.625972979575e-01 
3.023154462176e+01 4.575572679227e-01 
3.051623962214e+01 4.527904128868e-01 
3.079808767322e+01 4.482734903051e-01 
3.107711724341e+01 4.439859402949e-01 
3.135335651994e+01 4.399094999348e-01 
3.162683340262e+01 4.360278834037e-01 
3.189757551279e+01 4.323265147104e-01 
3.216561020377e+01 4.287923032512e-01 
3.243096454952e+01 4.254134546153e-01 
3.269366535024e+01 4.221793098439e-01 
3.295373914191e+01 4.190802083553e-01 
3.321121219744e+01 4.161073706594e-01 
3.346611052380e+01 4.132527975384e-01 
3.371845986730e+01 4.105091829022e-01 
3.396828571874e+01 4.078698382589e-01 
3.421561331035e+01 4.053286270941e-01 
3.446046762505e+01 4.028799074657e-01 
3.470287339729e+01 4.005184818132e-01 
3.494285510986e+01 3.982395528987e-01 
3.518043700691e+01 3.960386848346e-01 
3.541564308728e+01 3.939117688228e-01 
3.564849710360e+01 3.918549927426e-01 
3.587902257706e+01 3.898648139979e-01 
3.610724279709e+01 3.879379354622e-01 
3.633318081799e+01 3.860712840260e-01 
3.655685945957e+01 3.842619913672e-01 
3.677830131170e+01 3.825073766738e-01 
3.699752874307e+01 3.808049310846e-01 
3.721456390146e+01 3.791523037411e-01 
3.742942871004e+01 3.775472892303e-01 
3.764214487180e+01 3.759878161724e-01 
3.785273386982e+01 3.744719369132e-01 
3.806121697578e+01 3.729978181154e-01 
3.826761525399e+01 3.715637322371e-01 
3.847194955000e+01 3.701680498795e-01 
3.867424050154e+01 3.688092326584e-01 
3.887450854416e+01 3.674858267312e-01 
3.907277390645e+01 3.661964569424e-01 
3.926905661414e+01 3.649398214060e-01 
3.946337649433e+01 3.637146865351e-01 
3.965575317905e+01 3.625198824814e-01 
3.984620609817e+01 3.613542990059e-01 
4.003475448512e+01 3.602168815994e-01 
4.022141738721e+01 3.591066278793e-01 
4.040621366003e+01 3.580225843563e-01 
4.058916197154e+01 3.569638433908e-01 
4.077028080162e+01 3.559295404022e-01 
4.094958844186e+01 3.549188512842e-01 
4.112710300326e+01 3.539309899628e-01 
4.130284241994e+01 3.529652061537e-01 
4.147682444440e+01 3.520207833224e-01 
4.164906664717e+01 3.510970367655e-01 
4.181958642849e+01 3.501933117592e-01 
4.198840101358e+01 3.493089819222e-01 
4.215552745206e+01 3.484434476651e-01 
4.232098262548e+01 3.475961347035e-01 
4.248478324662e+01 3.467664927094e-01 
4.264694586287e+01 3.459539940306e-01 
4.280748685528e+01 3.451581325128e-01 
4.296642243838e+01 3.443784223937e-01 
4.312376866238e+01 3.436143972544e-01 
4.327954142159e+01 3.428656090059e-01 
4.343375645294e+01 3.421316269856e-01 
4.358642933514e+01 3.414120371038e-01 
4.373757549184e+01 3.407064410250e-01 
4.388721018651e+01 3.400144554338e-01 
4.403534853386e+01 3.393357112700e-01 
4.418200549861e+01 3.386698530643e-01 
4.432719589038e+01 3.380165383298e-01 
4.447093437909e+01 3.373754368972e-01 
4.461323548534e+01 3.367462303972e-01 
4.475411357948e+01 3.361286117336e-01 
4.489358289262e+01 3.355222845345e-01 
4.503165751129e+01 3.349269627027e-01 
4.516835138443e+01 3.343423699384e-01 
4.530367831790e+01 3.337682393403e-01 
4.543765198153e+01 3.332043129742e-01 
4.557028591168e+01 3.326503414841e-01 
4.570159350173e+01 3.321060837727e-01 
4.583158801313e+01 3.315713066141e-01 
4.596028257790e+01 3.310457843211e-01 
4.608769019726e+01 3.305292984448e-01 
4.621382374399e+01 3.300216374740e-01 
4.633869595776e+01 3.295225965782e-01 
4.646231944592e+01 3.290319773409e-01 
4.658470669613e+01 3.285495874597e-01 
4.670587007374e+01 3.280752405202e-01 
4.682582182039e+01 3.276087557762e-01 
4.694457405235e+01 3.271499579403e-01 
4.706213876301e+01 3.266986769702e-01 
4.717852782535e+01 3.262547478634e-01 
4.729375299423e+01 3.258180104631e-01 
4.740782591300e+01 3.253883092561e-01 
4.752075810333e+01 3.249654932426e-01 
4.763256097182e+01 3.245494157494e-01 
4.774324581220e+01 3.241399342687e-01 
4.785282380358e+01 3.237369103170e-01 
4.796130601263e+01 3.233402092872e-01 
4.806870340003e+01 3.229497002904e-01 
4.817502681425e+01 3.225652560514e-01 
4.828028699402e+01 3.221867527764e-01 
4.838449457434e+01 3.218140700145e-01 
4.848766007648e+01 3.214470905816e-01 
4.858979392242e+01 3.210857004008e-01 
4.869090643273e+01 3.207297884082e-01 
4.879100781637e+01 3.203792464901e-01 
4.889010818521e+01 3.200339693378e-01 
4.898821755173e+01 3.196938543651e-01 
4.908534582302e+01 3.193588016431e-01 
4.918150281090e+01 3.190287137816e-01 
4.927669822982e+01 3.187034958573e-01 
4.937094169467e+01 3.183830553446e-01 
4.946424272674e+01 3.180673020220e-01 
4.955661074807e+01 3.177561479214e-01 
4.964805508619e+01 3.174495072434e-01 
4.973858498134e+01 3.171472962693e-01 
4.982820957952e+01 3.168494333216e-01 
4.991693793441e+01 3.165558386979e-01 
5.000477900513e+01 3.162664346207e-01 
5.009174166220e+01 3.159811451618e-01 
5.017783469342e+01 3.156998961704e-01 
5.026306679729e+01 3.154226152437e-01 
5.034744658083e+01 3.151492316843e-01 
5.043098256532e+01 3.148796764340e-01 
5.051368318814e+01 3.146138820226e-01 
5.059555680435e+01 3.143517825187e-01 
5.067661168431e+01 3.140933134955e-01 
5.075685601533e+01 3.138384119840e-01 
5.083629790336e+01 3.135870164293e-01 
5.091494537457e+01 3.133390666472e-01 
5.099280636884e+01 3.130945038085e-01 
5.106988874950e+01 3.128532703729e-01 
5.114620030911e+01 3.126153100376e-01 
5.122174875440e+01 3.123805677515e-01 
5.129654171632e+01 3.121489896521e-01 
5.137058674720e+01 3.119205230442e-01 
5.144389132669e+01 3.116951163521e-01 
5.151646286296e+01 3.114727190877e-01 
5.158830868202e+01 3.112532818559e-01 
5.165943604158e+01 3.110367562857e-01 
5.172985212829e+01 3.108230950133e-01 
5.179956405512e+01 3.106122516658e-01 
5.186857886278e+01 3.104041808322e-01 
5.193690352121e+01 3.101988380370e-01 
5.200454493503e+01 3.099961797007e-01 
5.207150993669e+01 3.097961631399e-01 
5.213780528793e+01 3.095987465411e-01 
5.220343768520e+01 3.094038889252e-01 
5.226841375694e+01 3.092115501361e-01 
5.233274006904e+01 3.090216908056e-01 
5.239642311780e+01 3.088342723562e-01 
5.245946933558e+01 3.086492569670e-01 
5.252188509188e+01 3.084666075535e-01 
5.258367669068e+01 3.082862877587e-01 
5.264485037160e+01 3.081082619343e-01 
5.270541231541e+01 3.079324951089e-01 
5.276536864094e+01 3.077589529822e-01 
5.282472540242e+01 3.075876019182e-01 
5.288348859877e+01 3.074184089049e-01 
5.294166416273e+01 3.072513415712e-01 
5.299925796983e+01 3.070863681487e-01 
5.305627584002e+01 3.069234574541e-01 
5.311272353041e+01 3.067625788976e-01 
5.316860674471e+01 3.066037024443e-01 
5.322393112608e+01 3.064467986225e-01 
5.327870226254e+01 3.062918384979e-01 
5.333292568789e+01 3.061387936593e-01 
5.338660687891e+01 3.059876362166e-01 
5.343975126043e+01 3.058383387761e-01 
5.349236419825e+01 3.056908744506e-01 
5.354445100440e+01 3.055452168347e-01 
5.359601694229e+01 3.054013399814e-01 
5.364706721946e+01 3.052592184133e-01 
5.369760699289e+01 3.051188270987e-01 
5.374764136991e+01 3.049801414413e-01 
5.379717540517e+01 3.048431372795e-01 
5.384621410165e+01 3.047077908763e-01 
5.389476241171e+01 3.045740789079e-01 
5.394282523804e+01 3.044419784542e-01 
5.399040743473e+01 3.043114669882e-01 
5.403751380815e+01 3.041825223663e-01 
5.408414911801e+01 3.040551228188e-01 
5.413031807408e+01 3.039292469521e-01 
5.417602534143e+01 3.038048737278e-01 
5.422127553706e+01 3.036819824656e-01 
5.426607323102e+01 3.035605528340e-01 
5.431042294717e+01 3.034405648424e-01 
5.435432916428e+01 3.033219988321e-01 
5.439779632085e+01 3.032048354579e-01 
5.444082880791e+01 3.030890557017e-01 
5.448343096979e+01 3.029746408656e-01 
5.452560710930e+01 3.028615725522e-01 
5.456736148841e+01 3.027498326582e-01 
5.460869832099e+01 3.026394033885e-01 
5.464962178599e+01 3.025302672167e-01 
5.469013601585e+01 3.024224069110e-01 
5.473024510163e+01 3.023158055161e-01 
5.476995309773e+01 3.022104463366e-01 
5.480926401467e+01 3.021063129516e-01 
5.484818182384e+01 3.020033891976e-01 
5.488671045437e+01 3.019016591739e-01 
5.492485379792e+01 3.018011072245e-01 
5.496261570951e+01 3.017017179334e-01 
5.500000000000e+01 3.016034760573e-01 
