 TITLE = "Profiles along polylines"
 VARIABLES = "DIST" "SATURATION1" 
 ZONE T="TIME=0.000000000000e+00"
0.000000000000e+00 1.000000000000e+00 
5.870104451498e-01 1.000000000000e+00 
1.168150789010e+00 1.000000000000e+00 
1.743479729825e+00 1.000000000000e+00 
2.313055380762e+00 1.000000000000e+00 
2.876935273408e+00 1.000000000000e+00 
3.435176365294e+00 1.000000000000e+00 
3.987835047236e+00 1.000000000000e+00 
4.534967142357e+00 1.000000000000e+00 
5.076627917461e+00 1.000000000000e+00 
5.612872085824e+00 1.000000000000e+00 
6.143753810163e+00 1.000000000000e+00 
6.669326717615e+00 1.000000000000e+00 
7.189643898175e+00 1.000000000000e+00 
7.704757907243e+00 1.000000000000e+00 
8.214720776254e+00 1.000000000000e+00 
8.719584014911e+00 1.000000000000e+00 
9.219398621660e+00 1.000000000000e+00 
9.714215085540e+00 1.000000000000e+00 
1.020408338451e+01 1.000000000000e+00 
1.068905299897e+01 1.000000000000e+00 
1.116917291825e+01 1.000000000000e+00 
1.164449163786e+01 1.000000000000e+00 
1.211505716936e+01 1.000000000000e+00 
1.258091704590e+01 1.000000000000e+00 
1.304211832362e+01 1.000000000000e+00 
1.349870758703e+01 1.000000000000e+00 
1.395073095844e+01 1.000000000000e+00 
1.439823409895e+01 1.000000000000e+00 
1.484126220542e+01 1.000000000000e+00 
1.527986002789e+01 1.000000000000e+00 
1.571407187434e+01 1.000000000000e+00 
1.614394160322e+01 1.000000000000e+00 
1.656951263238e+01 1.000000000000e+00 
1.699082795193e+01 1.000000000000e+00 
1.740793012051e+01 1.000000000000e+00 
1.782086126570e+01 1.000000000000e+00 
1.822966309670e+01 1.000000000000e+00 
1.863437691268e+01 1.000000000000e+00 
1.903504359047e+01 1.000000000000e+00 
1.943170360126e+01 1.000000000000e+00 
1.982439701443e+01 1.000000000000e+00 
2.021316349346e+01 1.000000000000e+00 
2.059804230795e+01 1.000000000000e+00 
2.097907233341e+01 1.000000000000e+00 
2.135629205906e+01 1.000000000000e+00 
2.172973958734e+01 1.000000000000e+00 
2.209945263757e+01 1.000000000000e+00 
2.246546855765e+01 1.000000000000e+00 
2.282782431917e+01 1.000000000000e+00 
2.318655652091e+01 1.000000000000e+00 
2.354170140024e+01 1.000000000000e+00 
2.389329483225e+01 1.000000000000e+00 
2.424137233281e+01 1.000000000000e+00 
2.458596905759e+01 1.000000000000e+00 
2.492711981332e+01 1.000000000000e+00 
2.526485906059e+01 1.000000000000e+00 
2.559922091678e+01 1.000000000000e+00 
2.593023915458e+01 1.000000000000e+00 
2.625794720904e+01 1.000000000000e+00 
2.658237818411e+01 1.000000000000e+00 
2.690356485117e+01 1.000000000000e+00 
2.722153965161e+01 1.000000000000e+00 
2.753633470324e+01 1.000000000000e+00 
2.784798180276e+01 1.000000000000e+00 
2.815651243212e+01 1.000000000000e+00 
2.846195775696e+01 1.000000000000e+00 
2.876434862800e+01 1.000000000000e+00 
2.906371559222e+01 1.000000000000e+00 
2.936008888632e+01 1.000000000000e+00 
2.965349844695e+01 1.000000000000e+00 
2.994397391269e+01 1.000000000000e+00 
3.023154462176e+01 1.000000000000e+00 
3.051623962214e+01 1.000000000000e+00 
3.079808767322e+01 1.000000000000e+00 
3.107711724341e+01 1.000000000000e+00 
3.135335651994e+01 1.000000000000e+00 
3.162683340262e+01 1.000000000000e+00 
3.189757551279e+01 1.000000000000e+00 
3.216561020377e+01 1.000000000000e+00 
3.243096454952e+01 1.000000000000e+00 
3.269366535024e+01 1.000000000000e+00 
3.295373914191e+01 1.000000000000e+00 
3.321121219744e+01 1.000000000000e+00 
3.346611052380e+01 1.000000000000e+00 
3.371845986730e+01 1.000000000000e+00 
3.396828571874e+01 1.000000000000e+00 
3.421561331035e+01 1.000000000000e+00 
3.446046762505e+01 1.000000000000e+00 
3.470287339729e+01 1.000000000000e+00 
3.494285510986e+01 1.000000000000e+00 
3.518043700691e+01 1.000000000000e+00 
3.541564308728e+01 1.000000000000e+00 
3.564849710360e+01 1.000000000000e+00 
3.587902257706e+01 1.000000000000e+00 
3.610724279709e+01 1.000000000000e+00 
3.633318081799e+01 1.000000000000e+00 
3.655685945957e+01 1.000000000000e+00 
3.677830131170e+01 1.000000000000e+00 
3.699752874307e+01 1.000000000000e+00 
3.721456390146e+01 1.000000000000e+00 
3.742942871004e+01 1.000000000000e+00 
3.764214487180e+01 1.000000000000e+00 
3.785273386982e+01 1.000000000000e+00 
3.806121697578e+01 1.000000000000e+00 
3.826761525399e+01 1.000000000000e+00 
3.847194955000e+01 1.000000000000e+00 
3.867424050154e+01 1.000000000000e+00 
3.887450854416e+01 1.000000000000e+00 
3.907277390645e+01 1.000000000000e+00 
3.926905661414e+01 1.000000000000e+00 
3.946337649433e+01 1.000000000000e+00 
3.965575317905e+01 1.000000000000e+00 
3.984620609817e+01 1.000000000000e+00 
4.003475448512e+01 1.000000000000e+00 
4.022141738721e+01 1.000000000000e+00 
4.040621366003e+01 1.000000000000e+00 
4.058916197154e+01 1.000000000000e+00 
4.077028080162e+01 1.000000000000e+00 
4.094958844186e+01 1.000000000000e+00 
4.112710300326e+01 1.000000000000e+00 
4.130284241994e+01 1.000000000000e+00 
4.147682444440e+01 1.000000000000e+00 
4.164906664717e+01 1.000000000000e+00 
4.181958642849e+01 1.000000000000e+00 
4.198840101358e+01 1.000000000000e+00 
4.215552745206e+01 1.000000000000e+00 
4.232098262548e+01 1.000000000000e+00 
4.248478324662e+01 1.000000000000e+00 
4.264694586287e+01 1.000000000000e+00 
4.280748685528e+01 1.000000000000e+00 
4.296642243838e+01 1.000000000000e+00 
4.312376866238e+01 1.000000000000e+00 
4.327954142159e+01 1.000000000000e+00 
4.343375645294e+01 1.000000000000e+00 
4.358642933514e+01 1.000000000000e+00 
4.373757549184e+01 1.000000000000e+00 
4.388721018651e+01 1.000000000000e+00 
4.403534853386e+01 1.000000000000e+00 
4.418200549861e+01 1.000000000000e+00 
4.432719589038e+01 1.000000000000e+00 
4.447093437909e+01 1.000000000000e+00 
4.461323548534e+01 1.000000000000e+00 
4.475411357948e+01 1.000000000000e+00 
4.489358289262e+01 1.000000000000e+00 
4.503165751129e+01 1.000000000000e+00 
4.516835138443e+01 1.000000000000e+00 
4.530367831790e+01 1.000000000000e+00 
4.543765198153e+01 1.000000000000e+00 
4.557028591168e+01 1.000000000000e+00 
4.570159350173e+01 1.000000000000e+00 
4.583158801313e+01 1.000000000000e+00 
4.596028257790e+01 1.000000000000e+00 
4.608769019726e+01 1.000000000000e+00 
4.621382374399e+01 1.000000000000e+00 
4.633869595776e+01 1.000000000000e+00 
4.646231944592e+01 1.000000000000e+00 
4.658470669613e+01 1.000000000000e+00 
4.670587007374e+01 1.000000000000e+00 
4.682582182039e+01 1.000000000000e+00 
4.694457405235e+01 1.000000000000e+00 
4.706213876301e+01 1.000000000000e+00 
4.717852782535e+01 1.000000000000e+00 
4.729375299423e+01 1.000000000000e+00 
4.740782591300e+01 1.000000000000e+00 
4.752075810333e+01 1.000000000000e+00 
4.763256097182e+01 1.000000000000e+00 
4.774324581220e+01 1.000000000000e+00 
4.785282380358e+01 1.000000000000e+00 
4.796130601263e+01 1.000000000000e+00 
4.806870340003e+01 1.000000000000e+00 
4.817502681425e+01 1.000000000000e+00 
4.828028699402e+01 1.000000000000e+00 
4.838449457434e+01 1.000000000000e+00 
4.848766007648e+01 1.000000000000e+00 
4.858979392242e+01 1.000000000000e+00 
4.869090643273e+01 1.000000000000e+00 
4.879100781637e+01 1.000000000000e+00 
4.889010818521e+01 1.000000000000e+00 
4.898821755173e+01 1.000000000000e+00 
4.908534582302e+01 1.000000000000e+00 
4.918150281090e+01 1.000000000000e+00 
4.927669822982e+01 1.000000000000e+00 
4.937094169467e+01 1.000000000000e+00 
4.946424272674e+01 1.000000000000e+00 
4.955661074807e+01 1.000000000000e+00 
4.964805508619e+01 1.000000000000e+00 
4.973858498134e+01 1.000000000000e+00 
4.982820957952e+01 1.000000000000e+00 
4.991693793441e+01 1.000000000000e+00 
5.000477900513e+01 1.000000000000e+00 
5.009174166220e+01 1.000000000000e+00 
5.017783469342e+01 1.000000000000e+00 
5.026306679729e+01 1.000000000000e+00 
5.034744658083e+01 1.000000000000e+00 
5.043098256532e+01 1.000000000000e+00 
5.051368318814e+01 1.000000000000e+00 
5.059555680435e+01 1.000000000000e+00 
5.067661168431e+01 1.000000000000e+00 
5.075685601533e+01 1.000000000000e+00 
5.083629790336e+01 1.000000000000e+00 
5.091494537457e+01 1.000000000000e+00 
5.099280636884e+01 1.000000000000e+00 
5.106988874950e+01 1.000000000000e+00 
5.114620030911e+01 1.000000000000e+00 
5.122174875440e+01 1.000000000000e+00 
5.129654171632e+01 1.000000000000e+00 
5.137058674720e+01 1.000000000000e+00 
5.144389132669e+01 1.000000000000e+00 
5.151646286296e+01 1.000000000000e+00 
5.158830868202e+01 1.000000000000e+00 
5.165943604158e+01 1.000000000000e+00 
5.172985212829e+01 1.000000000000e+00 
5.179956405512e+01 1.000000000000e+00 
5.186857886278e+01 1.000000000000e+00 
5.193690352121e+01 1.000000000000e+00 
5.200454493503e+01 1.000000000000e+00 
5.207150993669e+01 1.000000000000e+00 
5.213780528793e+01 1.000000000000e+00 
5.220343768520e+01 1.000000000000e+00 
5.226841375694e+01 1.000000000000e+00 
5.233274006904e+01 1.000000000000e+00 
5.239642311780e+01 1.000000000000e+00 
5.245946933558e+01 1.000000000000e+00 
5.252188509188e+01 1.000000000000e+00 
5.258367669068e+01 1.000000000000e+00 
5.264485037160e+01 1.000000000000e+00 
5.270541231541e+01 1.000000000000e+00 
5.276536864094e+01 1.000000000000e+00 
5.282472540242e+01 1.000000000000e+00 
5.288348859877e+01 1.000000000000e+00 
5.294166416273e+01 1.000000000000e+00 
5.299925796983e+01 1.000000000000e+00 
5.305627584002e+01 1.000000000000e+00 
5.311272353041e+01 1.000000000000e+00 
5.316860674471e+01 1.000000000000e+00 
5.322393112608e+01 1.000000000000e+00 
5.327870226254e+01 1.000000000000e+00 
5.333292568789e+01 1.000000000000e+00 
5.338660687891e+01 1.000000000000e+00 
5.343975126043e+01 1.000000000000e+00 
5.349236419825e+01 1.000000000000e+00 
5.354445100440e+01 1.000000000000e+00 
5.359601694229e+01 1.000000000000e+00 
5.364706721946e+01 1.000000000000e+00 
5.369760699289e+01 1.000000000000e+00 
5.374764136991e+01 1.000000000000e+00 
5.379717540517e+01 1.000000000000e+00 
5.384621410165e+01 1.000000000000e+00 
5.389476241171e+01 1.000000000000e+00 
5.394282523804e+01 1.000000000000e+00 
5.399040743473e+01 1.000000000000e+00 
5.403751380815e+01 1.000000000000e+00 
5.408414911801e+01 1.000000000000e+00 
5.413031807408e+01 1.000000000000e+00 
5.417602534143e+01 1.000000000000e+00 
5.422127553706e+01 1.000000000000e+00 
5.426607323102e+01 1.000000000000e+00 
5.431042294717e+01 1.000000000000e+00 
5.435432916428e+01 1.000000000000e+00 
5.439779632085e+01 1.000000000000e+00 
5.444082880791e+01 1.000000000000e+00 
5.448343096979e+01 1.000000000000e+00 
5.452560710930e+01 1.000000000000e+00 
5.456736148841e+01 1.000000000000e+00 
5.460869832099e+01 1.000000000000e+00 
5.464962178599e+01 1.000000000000e+00 
5.469013601585e+01 1.000000000000e+00 
5.473024510163e+01 1.000000000000e+00 
5.476995309773e+01 1.000000000000e+00 
5.480926401467e+01 1.000000000000e+00 
5.484818182384e+01 1.000000000000e+00 
5.488671045437e+01 1.000000000000e+00 
5.492485379792e+01 1.000000000000e+00 
5.496261570951e+01 1.000000000000e+00 
5.500000000000e+01 1.000000000000e+00 
 TITLE = "Profiles along polylines"
 VARIABLES = "DIST" "SATURATION1" 
 ZONE T="TIME=1.797693134862e+308"
0.000000000000e+00 1.000000000000e+00 
5.870104451498e-01 1.000000000000e+00 
1.168150789010e+00 1.000000000000e+00 
1.743479729825e+00 1.000000000000e+00 
2.313055380762e+00 1.000000000000e+00 
2.876935273408e+00 1.000000000000e+00 
3.435176365294e+00 1.000000000000e+00 
3.987835047236e+00 1.000000000000e+00 
4.534967142357e+00 1.000000000000e+00 
5.076627917461e+00 1.000000000000e+00 
5.612872085824e+00 1.000000000000e+00 
6.143753810163e+00 1.000000000000e+00 
6.669326717615e+00 1.000000000000e+00 
7.189643898175e+00 1.000000000000e+00 
7.704757907243e+00 1.000000000000e+00 
8.214720776254e+00 1.000000000000e+00 
8.719584014911e+00 1.000000000000e+00 
9.219398621660e+00 1.000000000000e+00 
9.714215085540e+00 1.000000000000e+00 
1.020408338451e+01 1.000000000000e+00 
1.068905299897e+01 1.000000000000e+00 
1.116917291825e+01 1.000000000000e+00 
1.164449163786e+01 1.000000000000e+00 
1.211505716936e+01 1.000000000000e+00 
1.258091704590e+01 1.000000000000e+00 
1.304211832362e+01 1.000000000000e+00 
1.349870758703e+01 1.000000000000e+00 
1.395073095844e+01 1.000000000000e+00 
1.439823409895e+01 1.000000000000e+00 
1.484126220542e+01 1.000000000000e+00 
1.527986002789e+01 1.000000000000e+00 
1.571407187434e+01 1.000000000000e+00 
1.614394160322e+01 1.000000000000e+00 
1.656951263238e+01 1.000000000000e+00 
1.699082795193e+01 1.000000000000e+00 
1.740793012051e+01 1.000000000000e+00 
1.782086126570e+01 1.000000000000e+00 
1.822966309670e+01 1.000000000000e+00 
1.863437691268e+01 1.000000000000e+00 
1.903504359047e+01 1.000000000000e+00 
1.943170360126e+01 1.000000000000e+00 
1.982439701443e+01 1.000000000000e+00 
2.021316349346e+01 1.000000000000e+00 
2.059804230795e+01 1.000000000000e+00 
2.097907233341e+01 1.000000000000e+00 
2.135629205906e+01 1.000000000000e+00 
2.172973958734e+01 9.331589201277e-01 
2.209945263757e+01 8.569702912649e-01 
2.246546855765e+01 7.960519435709e-01 
2.282782431917e+01 7.476864185171e-01 
2.318655652091e+01 7.086246865347e-01 
2.354170140024e+01 6.764240123986e-01 
2.389329483225e+01 6.493725982476e-01 
2.424137233281e+01 6.262713573901e-01 
2.458596905759e+01 6.062655591024e-01 
2.492711981332e+01 5.887325960190e-01 
2.526485906059e+01 5.732090665863e-01 
2.559922091678e+01 5.593430806009e-01 
2.593023915458e+01 5.468625220558e-01 
2.625794720904e+01 5.355534977358e-01 
2.658237818411e+01 5.252453997026e-01 
2.690356485117e+01 5.158003470495e-01 
2.722153965161e+01 5.071055847624e-01 
2.753633470324e+01 4.990679180970e-01 
2.784798180276e+01 4.916095736952e-01 
2.815651243212e+01 4.846650773046e-01 
2.846195775696e+01 4.781788675955e-01 
2.876434862800e+01 4.721034502664e-01 
2.906371559222e+01 4.663979540719e-01 
2.936008888632e+01 4.610269901392e-01 
2.965349844695e+01 4.559597417612e-01 
2.994397391269e+01 4.511692321084e-01 
3.023154462176e+01 4.466317302188e-01 
3.051623962214e+01 4.423262652637e-01 
3.079808767322e+01 4.382342268272e-01 
3.107711724341e+01 4.343390337408e-01 
3.135335651994e+01 4.306258578131e-01 
3.162683340262e+01 4.270813923624e-01 
3.189757551279e+01 4.236936568645e-01 
3.216561020377e+01 4.204518313814e-01 
3.243096454952e+01 4.173461158235e-01 
3.269366535024e+01 4.143676093555e-01 
3.295373914191e+01 4.115082067495e-01 
3.321121219744e+01 4.087605090632e-01 
3.346611052380e+01 4.061177463278e-01 
3.371845986730e+01 4.035737102656e-01 
3.396828571874e+01 4.011226956069e-01 
3.421561331035e+01 3.987594488119e-01 
3.446046762505e+01 3.964791229387e-01 
3.470287339729e+01 3.942772379787e-01 
3.494285510986e+01 3.921496458616e-01 
3.518043700691e+01 3.900924993271e-01 
3.541564308728e+01 3.881022244513e-01 
3.564849710360e+01 3.861754961431e-01 
3.587902257706e+01 3.843092161527e-01 
3.610724279709e+01 3.825004935229e-01 
3.633318081799e+01 3.807466270894e-01 
3.655685945957e+01 3.790450897287e-01 
3.677830131170e+01 3.773935141494e-01 
3.699752874307e+01 3.757896800463e-01 
3.721456390146e+01 3.742315025532e-01 
3.742942871004e+01 3.727170218150e-01 
3.764214487180e+01 3.712443934741e-01 
3.785273386982e+01 3.698118800544e-01 
3.806121697578e+01 3.684178430666e-01 
3.826761525399e+01 3.670607358412e-01 
3.847194955000e+01 3.657390970844e-01 
3.867424050154e+01 3.644515448451e-01 
3.887450854416e+01 3.631967710237e-01 
3.907277390645e+01 3.619735364019e-01 
3.926905661414e+01 3.607806660248e-01 
3.946337649433e+01 3.596170449551e-01 
3.965575317905e+01 3.584816143683e-01 
3.984620609817e+01 3.573733680162e-01 
4.003475448512e+01 3.562913488881e-01 
4.022141738721e+01 3.552346461028e-01 
4.040621366003e+01 3.542023921213e-01 
4.058916197154e+01 3.531937601123e-01 
4.077028080162e+01 3.522079615353e-01 
4.094958844186e+01 3.512442438971e-01 
4.112710300326e+01 3.503018886246e-01 
4.130284241994e+01 3.493802091096e-01 
4.147682444440e+01 3.484785489313e-01 
4.164906664717e+01 3.475962801793e-01 
4.181958642849e+01 3.467328018281e-01 
4.198840101358e+01 3.458875383027e-01 
4.215552745206e+01 3.450599381185e-01 
4.232098262548e+01 3.442494725695e-01 
4.248478324662e+01 3.434556345414e-01 
4.264694586287e+01 3.426779373803e-01 
4.280748685528e+01 3.419159138533e-01 
4.296642243838e+01 3.411691151701e-01 
4.312376866238e+01 3.404371100533e-01 
4.327954142159e+01 3.397194838371e-01 
4.343375645294e+01 3.390158376655e-01 
4.358642933514e+01 3.383257877338e-01 
4.373757549184e+01 3.376489645589e-01 
4.388721018651e+01 3.369850123268e-01 
4.403534853386e+01 3.363335882065e-01 
4.418200549861e+01 3.356943617573e-01 
4.432719589038e+01 3.350670143858e-01 
4.447093437909e+01 3.344512387468e-01 
4.461323548534e+01 3.338467382821e-01 
4.475411357948e+01 3.332532267481e-01 
4.489358289262e+01 3.326704277199e-01 
4.503165751129e+01 3.320980741892e-01 
4.516835138443e+01 3.315359081323e-01 
4.530367831790e+01 3.309836801525e-01 
4.543765198153e+01 3.304411490901e-01 
4.557028591168e+01 3.299080816703e-01 
4.570159350173e+01 3.293842522169e-01 
4.583158801313e+01 3.288694423003e-01 
4.596028257790e+01 3.283634404354e-01 
4.608769019726e+01 3.278660418100e-01 
4.621382374399e+01 3.273770480124e-01 
4.633869595776e+01 3.268962667989e-01 
4.646231944592e+01 3.264235118515e-01 
4.658470669613e+01 3.259586025036e-01 
4.670587007374e+01 3.255013635342e-01 
4.682582182039e+01 3.250516249684e-01 
4.694457405235e+01 3.246092218878e-01 
4.706213876301e+01 3.241739942346e-01 
4.717852782535e+01 3.237457866244e-01 
4.729375299423e+01 3.233244481682e-01 
4.740782591300e+01 3.229098322875e-01 
4.752075810333e+01 3.225017965963e-01 
4.763256097182e+01 3.221002027301e-01 
4.774324581220e+01 3.217049161971e-01 
4.785282380358e+01 3.213158062504e-01 
4.796130601263e+01 3.209327457512e-01 
4.806870340003e+01 3.205556110234e-01 
4.817502681425e+01 3.201842817585e-01 
4.828028699402e+01 3.198186408941e-01 
4.838449457434e+01 3.194585744853e-01 
4.848766007648e+01 3.191039716369e-01 
4.858979392242e+01 3.187547243543e-01 
4.869090643273e+01 3.184107274569e-01 
4.879100781637e+01 3.180718785225e-01 
4.889010818521e+01 3.177380777507e-01 
4.898821755173e+01 3.174092278878e-01 
4.908534582302e+01 3.170852341674e-01 
4.918150281090e+01 3.167660041997e-01 
4.927669822982e+01 3.164514479054e-01 
4.937094169467e+01 3.161414774523e-01 
4.946424272674e+01 3.158360071679e-01 
4.955661074807e+01 3.155349534932e-01 
4.964805508619e+01 3.152382349046e-01 
4.973858498134e+01 3.149457718303e-01 
4.982820957952e+01 3.146574866155e-01 
4.991693793441e+01 3.143733034611e-01 
5.000477900513e+01 3.140931483768e-01 
5.009174166220e+01 3.138169491110e-01 
5.017783469342e+01 3.135446350831e-01 
5.026306679729e+01 3.132761373568e-01 
5.034744658083e+01 3.130113886016e-01 
5.043098256532e+01 3.127503230299e-01 
5.051368318814e+01 3.124928763499e-01 
5.059555680435e+01 3.122389857191e-01 
5.067661168431e+01 3.119885897131e-01 
5.075685601533e+01 3.117416282824e-01 
5.083629790336e+01 3.114980427106e-01 
5.091494537457e+01 3.112577755745e-01 
5.099280636884e+01 3.110207707303e-01 
5.106988874950e+01 3.107869732506e-01 
5.114620030911e+01 3.105563293761e-01 
5.122174875440e+01 3.103287865303e-01 
5.129654171632e+01 3.101042932603e-01 
5.137058674720e+01 3.098827992161e-01 
5.144389132669e+01 3.096642551065e-01 
5.151646286296e+01 3.094486126685e-01 
5.158830868202e+01 3.092358246738e-01 
5.165943604158e+01 3.090258448630e-01 
5.172985212829e+01 3.088186279301e-01 
5.179956405512e+01 3.086141295072e-01 
5.186857886278e+01 3.084123061382e-01 
5.193690352121e+01 3.082131152528e-01 
5.200454493503e+01 3.080165151299e-01 
5.207150993669e+01 3.078224648978e-01 
5.213780528793e+01 3.076309245103e-01 
5.220343768520e+01 3.074418547122e-01 
5.226841375694e+01 3.072552170291e-01 
5.233274006904e+01 3.070709737343e-01 
5.239642311780e+01 3.068890878518e-01 
5.245946933558e+01 3.067095231239e-01 
5.252188509188e+01 3.065322439922e-01 
5.258367669068e+01 3.063572155897e-01 
5.264485037160e+01 3.061844037226e-01 
5.270541231541e+01 3.060137748406e-01 
5.276536864094e+01 3.058452960310e-01 
5.282472540242e+01 3.056789350134e-01 
5.288348859877e+01 3.055146601002e-01 
5.294166416273e+01 3.053524402142e-01 
5.299925796983e+01 3.051922448514e-01 
5.305627584002e+01 3.050340440646e-01 
5.311272353041e+01 3.048778084719e-01 
5.316860674471e+01 3.047235092194e-01 
5.322393112608e+01 3.045711179902e-01 
5.327870226254e+01 3.044206069787e-01 
5.333292568789e+01 3.042719488780e-01 
5.338660687891e+01 3.041251168781e-01 
5.343975126043e+01 3.039800846417e-01 
5.349236419825e+01 3.038368263147e-01 
5.354445100440e+01 3.036953165028e-01 
5.359601694229e+01 3.035555302484e-01 
5.364706721946e+01 3.034174430422e-01 
5.369760699289e+01 3.032810308004e-01 
5.374764136991e+01 3.031462698540e-01 
5.379717540517e+01 3.030131369498e-01 
5.384621410165e+01 3.028816092395e-01 
5.389476241171e+01 3.027516642699e-01 
5.394282523804e+01 3.026232799731e-01 
5.399040743473e+01 3.024964346568e-01 
5.403751380815e+01 3.023711069951e-01 
5.408414911801e+01 3.022472760193e-01 
5.413031807408e+01 3.021249211205e-01 
5.417602534143e+01 3.020040220290e-01 
5.422127553706e+01 3.018845588178e-01 
5.426607323102e+01 3.017665118936e-01 
5.431042294717e+01 3.016498619890e-01 
5.435432916428e+01 3.015345901544e-01 
5.439779632085e+01 3.014206777396e-01 
5.444082880791e+01 3.013081064083e-01 
5.448343096979e+01 3.011968581301e-01 
5.452560710930e+01 3.010869151626e-01 
5.456736148841e+01 3.009782600448e-01 
5.460869832099e+01 3.008708756115e-01 
5.464962178599e+01 3.007647449539e-01 
5.469013601585e+01 3.006598514462e-01 
5.473024510163e+01 3.005561787274e-01 
5.476995309773e+01 3.004537106852e-01 
5.480926401467e+01 3.003524314709e-01 
5.484818182384e+01 3.002523254823e-01 
5.488671045437e+01 3.001533773692e-01 
5.492485379792e+01 3.000555720163e-01 
5.496261570951e+01 2.999588945381e-01 
5.500000000000e+01 2.998633302158e-01 
