 TITLE = "Profiles along polylines"
 VARIABLES = "DIST" "SATURATION1" 
 ZONE T="TIME=0.000000000000e+00"
0.000000000000e+00 1.000000000000e+00 
5.870104451498e-01 1.000000000000e+00 
1.168150789010e+00 1.000000000000e+00 
1.743479729825e+00 1.000000000000e+00 
2.313055380762e+00 1.000000000000e+00 
2.876935273408e+00 1.000000000000e+00 
3.435176365294e+00 1.000000000000e+00 
3.987835047236e+00 1.000000000000e+00 
4.534967142357e+00 1.000000000000e+00 
5.076627917461e+00 1.000000000000e+00 
5.612872085824e+00 1.000000000000e+00 
6.143753810163e+00 1.000000000000e+00 
6.669326717615e+00 1.000000000000e+00 
7.189643898175e+00 1.000000000000e+00 
7.704757907243e+00 1.000000000000e+00 
8.214720776254e+00 1.000000000000e+00 
8.719584014911e+00 1.000000000000e+00 
9.219398621660e+00 1.000000000000e+00 
9.714215085540e+00 1.000000000000e+00 
1.020408338451e+01 1.000000000000e+00 
1.068905299897e+01 1.000000000000e+00 
1.116917291825e+01 1.000000000000e+00 
1.164449163786e+01 1.000000000000e+00 
1.211505716936e+01 1.000000000000e+00 
1.258091704590e+01 1.000000000000e+00 
1.304211832362e+01 1.000000000000e+00 
1.349870758703e+01 1.000000000000e+00 
1.395073095844e+01 1.000000000000e+00 
1.439823409895e+01 1.000000000000e+00 
1.484126220542e+01 1.000000000000e+00 
1.527986002789e+01 1.000000000000e+00 
1.571407187434e+01 1.000000000000e+00 
1.614394160322e+01 1.000000000000e+00 
1.656951263238e+01 1.000000000000e+00 
1.699082795193e+01 1.000000000000e+00 
1.740793012051e+01 1.000000000000e+00 
1.782086126570e+01 1.000000000000e+00 
1.822966309670e+01 1.000000000000e+00 
1.863437691268e+01 1.000000000000e+00 
1.903504359047e+01 1.000000000000e+00 
1.943170360126e+01 1.000000000000e+00 
1.982439701443e+01 1.000000000000e+00 
2.021316349346e+01 1.000000000000e+00 
2.059804230795e+01 1.000000000000e+00 
2.097907233341e+01 1.000000000000e+00 
2.135629205906e+01 1.000000000000e+00 
2.172973958734e+01 1.000000000000e+00 
2.209945263757e+01 1.000000000000e+00 
2.246546855765e+01 1.000000000000e+00 
2.282782431917e+01 1.000000000000e+00 
2.318655652091e+01 1.000000000000e+00 
2.354170140024e+01 1.000000000000e+00 
2.389329483225e+01 1.000000000000e+00 
2.424137233281e+01 1.000000000000e+00 
2.458596905759e+01 1.000000000000e+00 
2.492711981332e+01 1.000000000000e+00 
2.526485906059e+01 1.000000000000e+00 
2.559922091678e+01 1.000000000000e+00 
2.593023915458e+01 1.000000000000e+00 
2.625794720904e+01 1.000000000000e+00 
2.658237818411e+01 1.000000000000e+00 
2.690356485117e+01 1.000000000000e+00 
2.722153965161e+01 1.000000000000e+00 
2.753633470324e+01 1.000000000000e+00 
2.784798180276e+01 1.000000000000e+00 
2.815651243212e+01 1.000000000000e+00 
2.846195775696e+01 1.000000000000e+00 
2.876434862800e+01 1.000000000000e+00 
2.906371559222e+01 1.000000000000e+00 
2.936008888632e+01 1.000000000000e+00 
2.965349844695e+01 1.000000000000e+00 
2.994397391269e+01 1.000000000000e+00 
3.023154462176e+01 1.000000000000e+00 
3.051623962214e+01 1.000000000000e+00 
3.079808767322e+01 1.000000000000e+00 
3.107711724341e+01 1.000000000000e+00 
3.135335651994e+01 1.000000000000e+00 
3.162683340262e+01 1.000000000000e+00 
3.189757551279e+01 1.000000000000e+00 
3.216561020377e+01 1.000000000000e+00 
3.243096454952e+01 1.000000000000e+00 
3.269366535024e+01 1.000000000000e+00 
3.295373914191e+01 1.000000000000e+00 
3.321121219744e+01 1.000000000000e+00 
3.346611052380e+01 1.000000000000e+00 
3.371845986730e+01 1.000000000000e+00 
3.396828571874e+01 1.000000000000e+00 
3.421561331035e+01 1.000000000000e+00 
3.446046762505e+01 1.000000000000e+00 
3.470287339729e+01 1.000000000000e+00 
3.494285510986e+01 1.000000000000e+00 
3.518043700691e+01 1.000000000000e+00 
3.541564308728e+01 1.000000000000e+00 
3.564849710360e+01 1.000000000000e+00 
3.587902257706e+01 1.000000000000e+00 
3.610724279709e+01 1.000000000000e+00 
3.633318081799e+01 1.000000000000e+00 
3.655685945957e+01 1.000000000000e+00 
3.677830131170e+01 1.000000000000e+00 
3.699752874307e+01 1.000000000000e+00 
3.721456390146e+01 1.000000000000e+00 
3.742942871004e+01 1.000000000000e+00 
3.764214487180e+01 1.000000000000e+00 
3.785273386982e+01 1.000000000000e+00 
3.806121697578e+01 1.000000000000e+00 
3.826761525399e+01 1.000000000000e+00 
3.847194955000e+01 1.000000000000e+00 
3.867424050154e+01 1.000000000000e+00 
3.887450854416e+01 1.000000000000e+00 
3.907277390645e+01 1.000000000000e+00 
3.926905661414e+01 1.000000000000e+00 
3.946337649433e+01 1.000000000000e+00 
3.965575317905e+01 1.000000000000e+00 
3.984620609817e+01 1.000000000000e+00 
4.003475448512e+01 1.000000000000e+00 
4.022141738721e+01 1.000000000000e+00 
4.040621366003e+01 1.000000000000e+00 
4.058916197154e+01 1.000000000000e+00 
4.077028080162e+01 1.000000000000e+00 
4.094958844186e+01 1.000000000000e+00 
4.112710300326e+01 1.000000000000e+00 
4.130284241994e+01 1.000000000000e+00 
4.147682444440e+01 1.000000000000e+00 
4.164906664717e+01 1.000000000000e+00 
4.181958642849e+01 1.000000000000e+00 
4.198840101358e+01 1.000000000000e+00 
4.215552745206e+01 1.000000000000e+00 
4.232098262548e+01 1.000000000000e+00 
4.248478324662e+01 1.000000000000e+00 
4.264694586287e+01 1.000000000000e+00 
4.280748685528e+01 1.000000000000e+00 
4.296642243838e+01 1.000000000000e+00 
4.312376866238e+01 1.000000000000e+00 
4.327954142159e+01 1.000000000000e+00 
4.343375645294e+01 1.000000000000e+00 
4.358642933514e+01 1.000000000000e+00 
4.373757549184e+01 1.000000000000e+00 
4.388721018651e+01 1.000000000000e+00 
4.403534853386e+01 1.000000000000e+00 
4.418200549861e+01 1.000000000000e+00 
4.432719589038e+01 1.000000000000e+00 
4.447093437909e+01 1.000000000000e+00 
4.461323548534e+01 1.000000000000e+00 
4.475411357948e+01 1.000000000000e+00 
4.489358289262e+01 1.000000000000e+00 
4.503165751129e+01 1.000000000000e+00 
4.516835138443e+01 1.000000000000e+00 
4.530367831790e+01 1.000000000000e+00 
4.543765198153e+01 1.000000000000e+00 
4.557028591168e+01 1.000000000000e+00 
4.570159350173e+01 1.000000000000e+00 
4.583158801313e+01 1.000000000000e+00 
4.596028257790e+01 1.000000000000e+00 
4.608769019726e+01 1.000000000000e+00 
4.621382374399e+01 1.000000000000e+00 
4.633869595776e+01 1.000000000000e+00 
4.646231944592e+01 1.000000000000e+00 
4.658470669613e+01 1.000000000000e+00 
4.670587007374e+01 1.000000000000e+00 
4.682582182039e+01 1.000000000000e+00 
4.694457405235e+01 1.000000000000e+00 
4.706213876301e+01 1.000000000000e+00 
4.717852782535e+01 1.000000000000e+00 
4.729375299423e+01 1.000000000000e+00 
4.740782591300e+01 1.000000000000e+00 
4.752075810333e+01 1.000000000000e+00 
4.763256097182e+01 1.000000000000e+00 
4.774324581220e+01 1.000000000000e+00 
4.785282380358e+01 1.000000000000e+00 
4.796130601263e+01 1.000000000000e+00 
4.806870340003e+01 1.000000000000e+00 
4.817502681425e+01 1.000000000000e+00 
4.828028699402e+01 1.000000000000e+00 
4.838449457434e+01 1.000000000000e+00 
4.848766007648e+01 1.000000000000e+00 
4.858979392242e+01 1.000000000000e+00 
4.869090643273e+01 1.000000000000e+00 
4.879100781637e+01 1.000000000000e+00 
4.889010818521e+01 1.000000000000e+00 
4.898821755173e+01 1.000000000000e+00 
4.908534582302e+01 1.000000000000e+00 
4.918150281090e+01 1.000000000000e+00 
4.927669822982e+01 1.000000000000e+00 
4.937094169467e+01 1.000000000000e+00 
4.946424272674e+01 1.000000000000e+00 
4.955661074807e+01 1.000000000000e+00 
4.964805508619e+01 1.000000000000e+00 
4.973858498134e+01 1.000000000000e+00 
4.982820957952e+01 1.000000000000e+00 
4.991693793441e+01 1.000000000000e+00 
5.000477900513e+01 1.000000000000e+00 
5.009174166220e+01 1.000000000000e+00 
5.017783469342e+01 1.000000000000e+00 
5.026306679729e+01 1.000000000000e+00 
5.034744658083e+01 1.000000000000e+00 
5.043098256532e+01 1.000000000000e+00 
5.051368318814e+01 1.000000000000e+00 
5.059555680435e+01 1.000000000000e+00 
5.067661168431e+01 1.000000000000e+00 
5.075685601533e+01 1.000000000000e+00 
5.083629790336e+01 1.000000000000e+00 
5.091494537457e+01 1.000000000000e+00 
5.099280636884e+01 1.000000000000e+00 
5.106988874950e+01 1.000000000000e+00 
5.114620030911e+01 1.000000000000e+00 
5.122174875440e+01 1.000000000000e+00 
5.129654171632e+01 1.000000000000e+00 
5.137058674720e+01 1.000000000000e+00 
5.144389132669e+01 1.000000000000e+00 
5.151646286296e+01 1.000000000000e+00 
5.158830868202e+01 1.000000000000e+00 
5.165943604158e+01 1.000000000000e+00 
5.172985212829e+01 1.000000000000e+00 
5.179956405512e+01 1.000000000000e+00 
5.186857886278e+01 1.000000000000e+00 
5.193690352121e+01 1.000000000000e+00 
5.200454493503e+01 1.000000000000e+00 
5.207150993669e+01 1.000000000000e+00 
5.213780528793e+01 1.000000000000e+00 
5.220343768520e+01 1.000000000000e+00 
5.226841375694e+01 1.000000000000e+00 
5.233274006904e+01 1.000000000000e+00 
5.239642311780e+01 1.000000000000e+00 
5.245946933558e+01 1.000000000000e+00 
5.252188509188e+01 1.000000000000e+00 
5.258367669068e+01 1.000000000000e+00 
5.264485037160e+01 1.000000000000e+00 
5.270541231541e+01 1.000000000000e+00 
5.276536864094e+01 1.000000000000e+00 
5.282472540242e+01 1.000000000000e+00 
5.288348859877e+01 1.000000000000e+00 
5.294166416273e+01 1.000000000000e+00 
5.299925796983e+01 1.000000000000e+00 
5.305627584002e+01 1.000000000000e+00 
5.311272353041e+01 1.000000000000e+00 
5.316860674471e+01 1.000000000000e+00 
5.322393112608e+01 1.000000000000e+00 
5.327870226254e+01 1.000000000000e+00 
5.333292568789e+01 1.000000000000e+00 
5.338660687891e+01 1.000000000000e+00 
5.343975126043e+01 1.000000000000e+00 
5.349236419825e+01 1.000000000000e+00 
5.354445100440e+01 1.000000000000e+00 
5.359601694229e+01 1.000000000000e+00 
5.364706721946e+01 1.000000000000e+00 
5.369760699289e+01 1.000000000000e+00 
5.374764136991e+01 1.000000000000e+00 
5.379717540517e+01 1.000000000000e+00 
5.384621410165e+01 1.000000000000e+00 
5.389476241171e+01 1.000000000000e+00 
5.394282523804e+01 1.000000000000e+00 
5.399040743473e+01 1.000000000000e+00 
5.403751380815e+01 1.000000000000e+00 
5.408414911801e+01 1.000000000000e+00 
5.413031807408e+01 1.000000000000e+00 
5.417602534143e+01 1.000000000000e+00 
5.422127553706e+01 1.000000000000e+00 
5.426607323102e+01 1.000000000000e+00 
5.431042294717e+01 1.000000000000e+00 
5.435432916428e+01 1.000000000000e+00 
5.439779632085e+01 1.000000000000e+00 
5.444082880791e+01 1.000000000000e+00 
5.448343096979e+01 1.000000000000e+00 
5.452560710930e+01 1.000000000000e+00 
5.456736148841e+01 1.000000000000e+00 
5.460869832099e+01 1.000000000000e+00 
5.464962178599e+01 1.000000000000e+00 
5.469013601585e+01 1.000000000000e+00 
5.473024510163e+01 1.000000000000e+00 
5.476995309773e+01 1.000000000000e+00 
5.480926401467e+01 1.000000000000e+00 
5.484818182384e+01 1.000000000000e+00 
5.488671045437e+01 1.000000000000e+00 
5.492485379792e+01 1.000000000000e+00 
5.496261570951e+01 1.000000000000e+00 
5.500000000000e+01 1.000000000000e+00 
 TITLE = "Profiles along polylines"
 VARIABLES = "DIST" "SATURATION1" 
 ZONE T="TIME=1.797693134862e+308"
0.000000000000e+00 1.000000000000e+00 
5.870104451498e-01 1.000000000000e+00 
1.168150789010e+00 1.000000000000e+00 
1.743479729825e+00 1.000000000000e+00 
2.313055380762e+00 1.000000000000e+00 
2.876935273408e+00 1.000000000000e+00 
3.435176365294e+00 1.000000000000e+00 
3.987835047236e+00 1.000000000000e+00 
4.534967142357e+00 1.000000000000e+00 
5.076627917461e+00 1.000000000000e+00 
5.612872085824e+00 1.000000000000e+00 
6.143753810163e+00 1.000000000000e+00 
6.669326717615e+00 1.000000000000e+00 
7.189643898175e+00 1.000000000000e+00 
7.704757907243e+00 1.000000000000e+00 
8.214720776254e+00 1.000000000000e+00 
8.719584014911e+00 1.000000000000e+00 
9.219398621660e+00 1.000000000000e+00 
9.714215085540e+00 1.000000000000e+00 
1.020408338451e+01 1.000000000000e+00 
1.068905299897e+01 1.000000000000e+00 
1.116917291825e+01 1.000000000000e+00 
1.164449163786e+01 1.000000000000e+00 
1.211505716936e+01 1.000000000000e+00 
1.258091704590e+01 1.000000000000e+00 
1.304211832362e+01 1.000000000000e+00 
1.349870758703e+01 1.000000000000e+00 
1.395073095844e+01 1.000000000000e+00 
1.439823409895e+01 1.000000000000e+00 
1.484126220542e+01 1.000000000000e+00 
1.527986002789e+01 1.000000000000e+00 
1.571407187434e+01 1.000000000000e+00 
1.614394160322e+01 1.000000000000e+00 
1.656951263238e+01 1.000000000000e+00 
1.699082795193e+01 1.000000000000e+00 
1.740793012051e+01 1.000000000000e+00 
1.782086126570e+01 1.000000000000e+00 
1.822966309670e+01 1.000000000000e+00 
1.863437691268e+01 1.000000000000e+00 
1.903504359047e+01 1.000000000000e+00 
1.943170360126e+01 1.000000000000e+00 
1.982439701443e+01 1.000000000000e+00 
2.021316349346e+01 1.000000000000e+00 
2.059804230795e+01 1.000000000000e+00 
2.097907233341e+01 9.944951559784e-01 
2.135629205906e+01 9.125232696183e-01 
2.172973958734e+01 8.394078326961e-01 
2.209945263757e+01 7.815067630400e-01 
2.246546855765e+01 7.354942893787e-01 
2.282782431917e+01 6.982069131733e-01 
2.318655652091e+01 6.673563083874e-01 
2.354170140024e+01 6.413517944573e-01 
2.389329483225e+01 6.190789468965e-01 
2.424137233281e+01 5.997411722251e-01 
2.458596905759e+01 5.827561461955e-01 
2.492711981332e+01 5.676888658144e-01 
2.526485906059e+01 5.542078532639e-01 
2.559922091678e+01 5.420559485326e-01 
2.593023915458e+01 5.310304167742e-01 
2.625794720904e+01 5.209691153403e-01 
2.658237818411e+01 5.117406842872e-01 
2.690356485117e+01 5.032374625002e-01 
2.722153965161e+01 4.953702854291e-01 
2.753633470324e+01 4.880646054949e-01 
2.784798180276e+01 4.812575580181e-01 
2.815651243212e+01 4.748957132383e-01 
2.846195775696e+01 4.689333336584e-01 
2.876434862800e+01 4.633310081126e-01 
2.906371559222e+01 4.580545701601e-01 
2.936008888632e+01 4.530742340533e-01 
2.965349844695e+01 4.483638980101e-01 
2.994397391269e+01 4.439005782407e-01 
3.023154462176e+01 4.396639456946e-01 
3.051623962214e+01 4.356359440161e-01 
3.079808767322e+01 4.318004726843e-01 
3.107711724341e+01 4.281431225599e-01 
3.135335651994e+01 4.246509537119e-01 
3.162683340262e+01 4.213123080865e-01 
3.189757551279e+01 4.181166504050e-01 
3.216561020377e+01 4.150544325338e-01 
3.243096454952e+01 4.121169775940e-01 
3.269366535024e+01 4.092963801211e-01 
3.295373914191e+01 4.065854198279e-01 
3.321121219744e+01 4.039774869504e-01 
3.346611052380e+01 4.014665173492e-01 
3.371845986730e+01 3.990469357836e-01 
3.396828571874e+01 3.967136062370e-01 
3.421561331035e+01 3.944617883533e-01 
3.446046762505e+01 3.922870989425e-01 
3.470287339729e+01 3.901854780395e-01 
3.494285510986e+01 3.881531588628e-01 
3.518043700691e+01 3.861866409928e-01 
3.541564308728e+01 3.842826666435e-01 
3.564849710360e+01 3.824381994318e-01 
3.587902257706e+01 3.806504052593e-01 
3.610724279709e+01 3.789166352817e-01 
3.633318081799e+01 3.772344106260e-01 
3.655685945957e+01 3.756014085967e-01 
3.677830131170e+01 3.740154502012e-01 
3.699752874307e+01 3.724744888437e-01 
3.721456390146e+01 3.709766001430e-01 
3.742942871004e+01 3.695199727210e-01 
3.764214487180e+01 3.681028997761e-01 
3.785273386982e+01 3.667237714388e-01 
3.806121697578e+01 3.653810677498e-01 
3.826761525399e+01 3.640733522749e-01 
3.847194955000e+01 3.627992663614e-01 
3.867424050154e+01 3.615575237406e-01 
3.887450854416e+01 3.603469056093e-01 
3.907277390645e+01 3.591662561752e-01 
3.926905661414e+01 3.580144785071e-01 
3.946337649433e+01 3.568905307144e-01 
3.965575317905e+01 3.557934224276e-01 
3.984620609817e+01 3.547222116102e-01 
4.003475448512e+01 3.536760015409e-01 
4.022141738721e+01 3.526539379971e-01 
4.040621366003e+01 3.516552067323e-01 
4.058916197154e+01 3.506790310855e-01 
4.077028080162e+01 3.497246697855e-01 
4.094958844186e+01 3.487914149111e-01 
4.112710300326e+01 3.478785899529e-01 
4.130284241994e+01 3.469855480287e-01 
4.147682444440e+01 3.461116702645e-01 
4.164906664717e+01 3.452563642615e-01 
4.181958642849e+01 3.444190626071e-01 
4.198840101358e+01 3.435992215628e-01 
4.215552745206e+01 3.427963198182e-01 
4.232098262548e+01 3.420098572857e-01 
4.248478324662e+01 3.412393540110e-01 
4.264694586287e+01 3.404843491329e-01 
4.280748685528e+01 3.397443999270e-01 
4.296642243838e+01 3.390190809050e-01 
4.312376866238e+01 3.383079829580e-01 
4.327954142159e+01 3.376107125228e-01 
4.343375645294e+01 3.369268908423e-01 
4.358642933514e+01 3.362561532654e-01 
4.373757549184e+01 3.355981485712e-01 
4.388721018651e+01 3.349525383666e-01 
4.403534853386e+01 3.343189964485e-01 
4.418200549861e+01 3.336972082551e-01 
4.432719589038e+01 3.330868703631e-01 
4.447093437909e+01 3.324876899290e-01 
4.461323548534e+01 3.318993842625e-01 
4.475411357948e+01 3.313216803879e-01 
4.489358289262e+01 3.307543145806e-01 
4.503165751129e+01 3.301970319940e-01 
4.516835138443e+01 3.296495862566e-01 
4.530367831790e+01 3.291117391390e-01 
4.543765198153e+01 3.285832601897e-01 
4.557028591168e+01 3.280639264057e-01 
4.570159350173e+01 3.275535219675e-01 
4.583158801313e+01 3.270518379079e-01 
4.596028257790e+01 3.265586718298e-01 
4.608769019726e+01 3.260738276525e-01 
4.621382374399e+01 3.255971153560e-01 
4.633869595776e+01 3.251283507645e-01 
4.646231944592e+01 3.246673553197e-01 
4.658470669613e+01 3.242139558211e-01 
4.670587007374e+01 3.237679842340e-01 
4.682582182039e+01 3.233292775026e-01 
4.694457405235e+01 3.228976773725e-01 
4.706213876301e+01 3.224730302056e-01 
4.717852782535e+01 3.220551868049e-01 
4.729375299423e+01 3.216440022467e-01 
4.740782591300e+01 3.212393357052e-01 
4.752075810333e+01 3.208410503441e-01 
4.763256097182e+01 3.204490131537e-01 
4.774324581220e+01 3.200630948112e-01 
4.785282380358e+01 3.196831695601e-01 
4.796130601263e+01 3.193091150818e-01 
4.806870340003e+01 3.189408123571e-01 
4.817502681425e+01 3.185781455773e-01 
4.828028699402e+01 3.182210020297e-01 
4.838449457434e+01 3.178692719754e-01 
4.848766007648e+01 3.175228485862e-01 
4.858979392242e+01 3.171816278026e-01 
4.869090643273e+01 3.168455082519e-01 
4.879100781637e+01 3.165143911967e-01 
4.889010818521e+01 3.161881804045e-01 
4.898821755173e+01 3.158667820768e-01 
4.908534582302e+01 3.155501047937e-01 
4.918150281090e+01 3.152380594077e-01 
4.927669822982e+01 3.149305589813e-01 
4.937094169467e+01 3.146275187280e-01 
4.946424272674e+01 3.143288559281e-01 
4.955661074807e+01 3.140344898857e-01 
4.964805508619e+01 3.137443418542e-01 
4.973858498134e+01 3.134583349565e-01 
4.982820957952e+01 3.131763941526e-01 
4.991693793441e+01 3.128984461810e-01 
5.000477900513e+01 3.126244195147e-01 
5.009174166220e+01 3.123542442940e-01 
5.017783469342e+01 3.120878522618e-01 
5.026306679729e+01 3.118251767385e-01 
5.034744658083e+01 3.115661525860e-01 
5.043098256532e+01 3.113107161473e-01 
5.051368318814e+01 3.110588052013e-01 
5.059555680435e+01 3.108103589189e-01 
5.067661168431e+01 3.105653178332e-01 
5.075685601533e+01 3.103236237983e-01 
5.083629790336e+01 3.100852199495e-01 
5.091494537457e+01 3.098500506653e-01 
5.099280636884e+01 3.096180615544e-01 
5.106988874950e+01 3.093891993952e-01 
5.114620030911e+01 3.091634120893e-01 
5.122174875440e+01 3.089406486767e-01 
5.129654171632e+01 3.087208592786e-01 
5.137058674720e+01 3.085039950780e-01 
5.144389132669e+01 3.082900082766e-01 
5.151646286296e+01 3.080788520665e-01 
5.158830868202e+01 3.078704806365e-01 
5.165943604158e+01 3.076648491084e-01 
5.172985212829e+01 3.074619135227e-01 
5.179956405512e+01 3.072616308238e-01 
5.186857886278e+01 3.070639588350e-01 
5.193690352121e+01 3.068688562338e-01 
5.200454493503e+01 3.066762825161e-01 
5.207150993669e+01 3.064861979971e-01 
5.213780528793e+01 3.062985637884e-01 
5.220343768520e+01 3.061133417645e-01 
5.226841375694e+01 3.059304945534e-01 
5.233274006904e+01 3.057499855047e-01 
5.239642311780e+01 3.055717786926e-01 
5.245946933558e+01 3.053958388848e-01 
5.252188509188e+01 3.052221315240e-01 
5.258367669068e+01 3.050506227210e-01 
5.264485037160e+01 3.048812792366e-01 
5.270541231541e+01 3.047140684531e-01 
5.276536864094e+01 3.045489583693e-01 
5.282472540242e+01 3.043859175947e-01 
5.288348859877e+01 3.042249153117e-01 
5.294166416273e+01 3.040659212933e-01 
5.299925796983e+01 3.039089058661e-01 
5.305627584002e+01 3.037538398954e-01 
5.311272353041e+01 3.036006947932e-01 
5.316860674471e+01 3.034494424821e-01 
5.322393112608e+01 3.033000554044e-01 
5.327870226254e+01 3.031525064970e-01 
5.333292568789e+01 3.030067691795e-01 
5.338660687891e+01 3.028628173523e-01 
5.343975126043e+01 3.027206253733e-01 
5.349236419825e+01 3.025801680684e-01 
5.354445100440e+01 3.024414207088e-01 
5.359601694229e+01 3.023043589883e-01 
5.364706721946e+01 3.021689590351e-01 
5.369760699289e+01 3.020351973894e-01 
5.374764136991e+01 3.019030509935e-01 
5.379717540517e+01 3.017724971921e-01 
5.384621410165e+01 3.016435137230e-01 
5.389476241171e+01 3.015160787063e-01 
5.394282523804e+01 3.013901706360e-01 
5.399040743473e+01 3.012657683699e-01 
5.403751380815e+01 3.011428511214e-01 
5.408414911801e+01 3.010213984499e-01 
5.413031807408e+01 3.009013902638e-01 
5.417602534143e+01 3.007828068008e-01 
5.422127553706e+01 3.006656286307e-01 
5.426607323102e+01 3.005498366471e-01 
5.431042294717e+01 3.004354120600e-01 
5.435432916428e+01 3.003223363876e-01 
5.439779632085e+01 3.002105914389e-01 
5.444082880791e+01 3.001001593271e-01 
5.448343096979e+01 2.999910224630e-01 
5.452560710930e+01 2.998831635365e-01 
5.456736148841e+01 2.997765655110e-01 
5.460869832099e+01 2.996712116370e-01 
5.464962178599e+01 2.995670854139e-01 
5.469013601585e+01 2.994641706164e-01 
5.473024510163e+01 2.993624512760e-01 
5.476995309773e+01 2.992619116659e-01 
5.480926401467e+01 2.991625363154e-01 
5.484818182384e+01 2.990643099936e-01 
5.488671045437e+01 2.989672177140e-01 
5.492485379792e+01 2.988712447190e-01 
5.496261570951e+01 2.987763764738e-01 
5.500000000000e+01 2.986825986064e-01 
