 TITLE = "Profiles along polylines"
 VARIABLES = "DIST" "SATURATION1" 
 ZONE T="TIME=0.000000000000e+00"
0.000000000000e+00 1.000000000000e+00 
0.000000000000e+00 1.000000000000e+00 
5.870104451498e-01 1.000000000000e+00 
5.870104451498e-01 1.000000000000e+00 
1.168150789010e+00 1.000000000000e+00 
1.168150789010e+00 1.000000000000e+00 
1.743479729825e+00 1.000000000000e+00 
1.743479729825e+00 1.000000000000e+00 
2.313055380762e+00 1.000000000000e+00 
2.313055380762e+00 1.000000000000e+00 
2.876935273408e+00 1.000000000000e+00 
2.876935273408e+00 1.000000000000e+00 
3.435176365294e+00 1.000000000000e+00 
3.435176365294e+00 1.000000000000e+00 
3.987835047236e+00 1.000000000000e+00 
3.987835047236e+00 1.000000000000e+00 
4.534967142357e+00 1.000000000000e+00 
4.534967142357e+00 1.000000000000e+00 
5.076627917461e+00 1.000000000000e+00 
5.076627917461e+00 1.000000000000e+00 
5.612872085824e+00 1.000000000000e+00 
5.612872085824e+00 1.000000000000e+00 
6.143753810163e+00 1.000000000000e+00 
6.143753810163e+00 1.000000000000e+00 
6.669326717615e+00 1.000000000000e+00 
6.669326717615e+00 1.000000000000e+00 
7.189643898175e+00 1.000000000000e+00 
7.189643898175e+00 1.000000000000e+00 
7.704757907243e+00 1.000000000000e+00 
7.704757907243e+00 1.000000000000e+00 
8.214720776254e+00 1.000000000000e+00 
8.214720776254e+00 1.000000000000e+00 
8.719584014911e+00 1.000000000000e+00 
8.719584014911e+00 1.000000000000e+00 
9.219398621660e+00 1.000000000000e+00 
9.219398621660e+00 1.000000000000e+00 
9.714215085540e+00 1.000000000000e+00 
9.714215085540e+00 1.000000000000e+00 
1.020408338451e+01 1.000000000000e+00 
1.020408338451e+01 1.000000000000e+00 
1.068905299897e+01 1.000000000000e+00 
1.068905299897e+01 1.000000000000e+00 
1.116917291825e+01 1.000000000000e+00 
1.116917291825e+01 1.000000000000e+00 
1.164449163786e+01 1.000000000000e+00 
1.164449163786e+01 1.000000000000e+00 
1.211505716936e+01 1.000000000000e+00 
1.211505716936e+01 1.000000000000e+00 
1.258091704590e+01 1.000000000000e+00 
1.258091704590e+01 1.000000000000e+00 
1.304211832362e+01 1.000000000000e+00 
1.304211832362e+01 1.000000000000e+00 
1.349870758703e+01 1.000000000000e+00 
1.349870758703e+01 1.000000000000e+00 
1.395073095844e+01 1.000000000000e+00 
1.395073095844e+01 1.000000000000e+00 
1.439823409895e+01 1.000000000000e+00 
1.439823409895e+01 1.000000000000e+00 
1.484126220542e+01 1.000000000000e+00 
1.484126220542e+01 1.000000000000e+00 
1.527986002789e+01 1.000000000000e+00 
1.527986002789e+01 1.000000000000e+00 
1.571407187434e+01 1.000000000000e+00 
1.571407187434e+01 1.000000000000e+00 
1.614394160322e+01 1.000000000000e+00 
1.614394160322e+01 1.000000000000e+00 
1.656951263238e+01 1.000000000000e+00 
1.656951263238e+01 1.000000000000e+00 
1.699082795193e+01 1.000000000000e+00 
1.699082795193e+01 1.000000000000e+00 
1.740793012051e+01 1.000000000000e+00 
1.740793012051e+01 1.000000000000e+00 
1.782086126570e+01 1.000000000000e+00 
1.782086126570e+01 1.000000000000e+00 
1.822966309670e+01 1.000000000000e+00 
1.822966309670e+01 1.000000000000e+00 
1.863437691268e+01 1.000000000000e+00 
1.863437691268e+01 1.000000000000e+00 
1.903504359047e+01 1.000000000000e+00 
1.903504359047e+01 1.000000000000e+00 
1.943170360126e+01 1.000000000000e+00 
1.943170360126e+01 1.000000000000e+00 
1.982439701443e+01 1.000000000000e+00 
1.982439701443e+01 1.000000000000e+00 
2.021316349346e+01 1.000000000000e+00 
2.021316349346e+01 1.000000000000e+00 
2.059804230795e+01 1.000000000000e+00 
2.059804230795e+01 1.000000000000e+00 
2.097907233341e+01 1.000000000000e+00 
2.097907233341e+01 1.000000000000e+00 
2.135629205906e+01 1.000000000000e+00 
2.135629205906e+01 1.000000000000e+00 
2.172973958734e+01 1.000000000000e+00 
2.172973958734e+01 1.000000000000e+00 
2.209945263757e+01 1.000000000000e+00 
2.209945263757e+01 1.000000000000e+00 
2.246546855765e+01 1.000000000000e+00 
2.246546855765e+01 1.000000000000e+00 
2.282782431917e+01 1.000000000000e+00 
2.282782431917e+01 1.000000000000e+00 
2.318655652091e+01 1.000000000000e+00 
2.318655652091e+01 1.000000000000e+00 
2.354170140024e+01 1.000000000000e+00 
2.354170140024e+01 1.000000000000e+00 
2.389329483225e+01 1.000000000000e+00 
2.389329483225e+01 1.000000000000e+00 
2.424137233281e+01 1.000000000000e+00 
2.424137233281e+01 1.000000000000e+00 
2.458596905759e+01 1.000000000000e+00 
2.458596905759e+01 1.000000000000e+00 
2.492711981332e+01 1.000000000000e+00 
2.492711981332e+01 1.000000000000e+00 
2.526485906059e+01 1.000000000000e+00 
2.526485906059e+01 1.000000000000e+00 
2.559922091678e+01 1.000000000000e+00 
2.559922091678e+01 1.000000000000e+00 
2.593023915458e+01 1.000000000000e+00 
2.593023915458e+01 1.000000000000e+00 
2.625794720904e+01 1.000000000000e+00 
2.625794720904e+01 1.000000000000e+00 
2.658237818411e+01 1.000000000000e+00 
2.658237818411e+01 1.000000000000e+00 
2.690356485117e+01 1.000000000000e+00 
2.690356485117e+01 1.000000000000e+00 
2.722153965161e+01 1.000000000000e+00 
2.722153965161e+01 1.000000000000e+00 
2.753633470324e+01 1.000000000000e+00 
2.753633470324e+01 1.000000000000e+00 
2.784798180276e+01 1.000000000000e+00 
2.784798180276e+01 1.000000000000e+00 
2.815651243212e+01 1.000000000000e+00 
2.815651243212e+01 1.000000000000e+00 
2.846195775696e+01 1.000000000000e+00 
2.846195775696e+01 1.000000000000e+00 
2.876434862800e+01 1.000000000000e+00 
2.876434862800e+01 1.000000000000e+00 
2.906371559222e+01 1.000000000000e+00 
2.906371559222e+01 1.000000000000e+00 
2.936008888632e+01 1.000000000000e+00 
2.936008888632e+01 1.000000000000e+00 
2.965349844695e+01 1.000000000000e+00 
2.965349844695e+01 1.000000000000e+00 
2.994397391269e+01 1.000000000000e+00 
2.994397391269e+01 1.000000000000e+00 
3.023154462176e+01 1.000000000000e+00 
3.023154462176e+01 1.000000000000e+00 
3.051623962214e+01 1.000000000000e+00 
3.051623962214e+01 1.000000000000e+00 
3.079808767322e+01 1.000000000000e+00 
3.079808767322e+01 1.000000000000e+00 
3.107711724341e+01 1.000000000000e+00 
3.107711724341e+01 1.000000000000e+00 
3.135335651994e+01 1.000000000000e+00 
3.135335651994e+01 1.000000000000e+00 
3.162683340262e+01 1.000000000000e+00 
3.162683340262e+01 1.000000000000e+00 
3.189757551279e+01 1.000000000000e+00 
3.189757551279e+01 1.000000000000e+00 
3.216561020377e+01 1.000000000000e+00 
3.216561020377e+01 1.000000000000e+00 
3.243096454952e+01 1.000000000000e+00 
3.243096454952e+01 1.000000000000e+00 
3.269366535024e+01 1.000000000000e+00 
3.269366535024e+01 1.000000000000e+00 
3.295373914191e+01 1.000000000000e+00 
3.295373914191e+01 1.000000000000e+00 
3.321121219744e+01 1.000000000000e+00 
3.321121219744e+01 1.000000000000e+00 
3.346611052380e+01 1.000000000000e+00 
3.346611052380e+01 1.000000000000e+00 
3.371845986730e+01 1.000000000000e+00 
3.371845986730e+01 1.000000000000e+00 
3.396828571874e+01 1.000000000000e+00 
3.396828571874e+01 1.000000000000e+00 
3.421561331035e+01 1.000000000000e+00 
3.421561331035e+01 1.000000000000e+00 
3.446046762505e+01 1.000000000000e+00 
3.446046762505e+01 1.000000000000e+00 
3.470287339729e+01 1.000000000000e+00 
3.470287339729e+01 1.000000000000e+00 
3.494285510986e+01 1.000000000000e+00 
3.494285510986e+01 1.000000000000e+00 
3.518043700691e+01 1.000000000000e+00 
3.518043700691e+01 1.000000000000e+00 
3.541564308728e+01 1.000000000000e+00 
3.541564308728e+01 1.000000000000e+00 
3.564849710360e+01 1.000000000000e+00 
3.564849710360e+01 1.000000000000e+00 
3.587902257706e+01 1.000000000000e+00 
3.587902257706e+01 1.000000000000e+00 
3.610724279709e+01 1.000000000000e+00 
3.610724279709e+01 1.000000000000e+00 
3.633318081799e+01 1.000000000000e+00 
3.633318081799e+01 1.000000000000e+00 
3.655685945957e+01 1.000000000000e+00 
3.655685945957e+01 1.000000000000e+00 
3.677830131170e+01 1.000000000000e+00 
3.677830131170e+01 1.000000000000e+00 
3.699752874307e+01 1.000000000000e+00 
3.699752874307e+01 1.000000000000e+00 
3.721456390146e+01 1.000000000000e+00 
3.721456390146e+01 1.000000000000e+00 
3.742942871004e+01 1.000000000000e+00 
3.742942871004e+01 1.000000000000e+00 
3.764214487180e+01 1.000000000000e+00 
3.764214487180e+01 1.000000000000e+00 
3.785273386982e+01 1.000000000000e+00 
3.785273386982e+01 1.000000000000e+00 
3.806121697578e+01 1.000000000000e+00 
3.806121697578e+01 1.000000000000e+00 
3.826761525399e+01 1.000000000000e+00 
3.826761525399e+01 1.000000000000e+00 
3.847194955000e+01 1.000000000000e+00 
3.847194955000e+01 1.000000000000e+00 
3.867424050154e+01 1.000000000000e+00 
3.867424050154e+01 1.000000000000e+00 
3.887450854416e+01 1.000000000000e+00 
3.887450854416e+01 1.000000000000e+00 
3.907277390645e+01 1.000000000000e+00 
3.907277390645e+01 1.000000000000e+00 
3.926905661414e+01 1.000000000000e+00 
3.926905661414e+01 1.000000000000e+00 
3.946337649433e+01 1.000000000000e+00 
3.946337649433e+01 1.000000000000e+00 
3.965575317905e+01 1.000000000000e+00 
3.965575317905e+01 1.000000000000e+00 
3.984620609817e+01 1.000000000000e+00 
3.984620609817e+01 1.000000000000e+00 
4.003475448512e+01 1.000000000000e+00 
4.003475448512e+01 1.000000000000e+00 
4.022141738721e+01 1.000000000000e+00 
4.022141738721e+01 1.000000000000e+00 
4.040621366003e+01 1.000000000000e+00 
4.040621366003e+01 1.000000000000e+00 
4.058916197154e+01 1.000000000000e+00 
4.058916197154e+01 1.000000000000e+00 
4.077028080162e+01 1.000000000000e+00 
4.077028080162e+01 1.000000000000e+00 
4.094958844186e+01 1.000000000000e+00 
4.094958844186e+01 1.000000000000e+00 
4.112710300326e+01 1.000000000000e+00 
4.112710300326e+01 1.000000000000e+00 
4.130284241994e+01 1.000000000000e+00 
4.130284241994e+01 1.000000000000e+00 
4.147682444440e+01 1.000000000000e+00 
4.147682444440e+01 1.000000000000e+00 
4.164906664717e+01 1.000000000000e+00 
4.164906664717e+01 1.000000000000e+00 
4.181958642849e+01 1.000000000000e+00 
4.181958642849e+01 1.000000000000e+00 
4.198840101358e+01 1.000000000000e+00 
4.198840101358e+01 1.000000000000e+00 
4.215552745206e+01 1.000000000000e+00 
4.215552745206e+01 1.000000000000e+00 
4.232098262548e+01 1.000000000000e+00 
4.232098262548e+01 1.000000000000e+00 
4.248478324662e+01 1.000000000000e+00 
4.248478324662e+01 1.000000000000e+00 
4.264694586287e+01 1.000000000000e+00 
4.264694586287e+01 1.000000000000e+00 
4.280748685528e+01 1.000000000000e+00 
4.280748685528e+01 1.000000000000e+00 
4.296642243838e+01 1.000000000000e+00 
4.296642243838e+01 1.000000000000e+00 
4.312376866238e+01 1.000000000000e+00 
4.312376866238e+01 1.000000000000e+00 
4.327954142159e+01 1.000000000000e+00 
4.327954142159e+01 1.000000000000e+00 
4.343375645294e+01 1.000000000000e+00 
4.343375645294e+01 1.000000000000e+00 
4.358642933514e+01 1.000000000000e+00 
4.358642933514e+01 1.000000000000e+00 
4.373757549184e+01 1.000000000000e+00 
4.373757549184e+01 1.000000000000e+00 
4.388721018651e+01 1.000000000000e+00 
4.388721018651e+01 1.000000000000e+00 
4.403534853386e+01 1.000000000000e+00 
4.403534853386e+01 1.000000000000e+00 
4.418200549861e+01 1.000000000000e+00 
4.418200549861e+01 1.000000000000e+00 
4.432719589038e+01 1.000000000000e+00 
4.432719589038e+01 1.000000000000e+00 
4.447093437909e+01 1.000000000000e+00 
4.447093437909e+01 1.000000000000e+00 
4.461323548534e+01 1.000000000000e+00 
4.461323548534e+01 1.000000000000e+00 
4.475411357948e+01 1.000000000000e+00 
4.475411357948e+01 1.000000000000e+00 
4.489358289262e+01 1.000000000000e+00 
4.489358289262e+01 1.000000000000e+00 
4.503165751129e+01 1.000000000000e+00 
4.503165751129e+01 1.000000000000e+00 
4.516835138443e+01 1.000000000000e+00 
4.516835138443e+01 1.000000000000e+00 
4.530367831790e+01 1.000000000000e+00 
4.530367831790e+01 1.000000000000e+00 
4.543765198153e+01 1.000000000000e+00 
4.543765198153e+01 1.000000000000e+00 
4.557028591168e+01 1.000000000000e+00 
4.557028591168e+01 1.000000000000e+00 
4.570159350173e+01 1.000000000000e+00 
4.570159350173e+01 1.000000000000e+00 
4.583158801313e+01 1.000000000000e+00 
4.583158801313e+01 1.000000000000e+00 
4.596028257790e+01 1.000000000000e+00 
4.596028257790e+01 1.000000000000e+00 
4.608769019726e+01 1.000000000000e+00 
4.608769019726e+01 1.000000000000e+00 
4.621382374399e+01 1.000000000000e+00 
4.621382374399e+01 1.000000000000e+00 
4.633869595776e+01 1.000000000000e+00 
4.633869595776e+01 1.000000000000e+00 
4.646231944592e+01 1.000000000000e+00 
4.646231944592e+01 1.000000000000e+00 
4.658470669613e+01 1.000000000000e+00 
4.658470669613e+01 1.000000000000e+00 
4.670587007374e+01 1.000000000000e+00 
4.670587007374e+01 1.000000000000e+00 
4.682582182039e+01 1.000000000000e+00 
4.682582182039e+01 1.000000000000e+00 
4.694457405235e+01 1.000000000000e+00 
4.694457405235e+01 1.000000000000e+00 
4.706213876301e+01 1.000000000000e+00 
4.706213876301e+01 1.000000000000e+00 
4.717852782535e+01 1.000000000000e+00 
4.717852782535e+01 1.000000000000e+00 
4.729375299423e+01 1.000000000000e+00 
4.729375299423e+01 1.000000000000e+00 
4.740782591300e+01 1.000000000000e+00 
4.740782591300e+01 1.000000000000e+00 
4.752075810333e+01 1.000000000000e+00 
4.752075810333e+01 1.000000000000e+00 
4.763256097182e+01 1.000000000000e+00 
4.763256097182e+01 1.000000000000e+00 
4.774324581220e+01 1.000000000000e+00 
4.774324581220e+01 1.000000000000e+00 
4.785282380358e+01 1.000000000000e+00 
4.785282380358e+01 1.000000000000e+00 
4.796130601263e+01 1.000000000000e+00 
4.796130601263e+01 1.000000000000e+00 
4.806870340003e+01 1.000000000000e+00 
4.806870340003e+01 1.000000000000e+00 
4.817502681425e+01 1.000000000000e+00 
4.817502681425e+01 1.000000000000e+00 
4.828028699402e+01 1.000000000000e+00 
4.828028699402e+01 1.000000000000e+00 
4.838449457434e+01 1.000000000000e+00 
4.838449457434e+01 1.000000000000e+00 
4.848766007648e+01 1.000000000000e+00 
4.848766007648e+01 1.000000000000e+00 
4.858979392242e+01 1.000000000000e+00 
4.858979392242e+01 1.000000000000e+00 
4.869090643273e+01 1.000000000000e+00 
4.869090643273e+01 1.000000000000e+00 
4.879100781637e+01 1.000000000000e+00 
4.879100781637e+01 1.000000000000e+00 
4.889010818521e+01 1.000000000000e+00 
4.889010818521e+01 1.000000000000e+00 
4.898821755173e+01 1.000000000000e+00 
4.898821755173e+01 1.000000000000e+00 
4.908534582302e+01 1.000000000000e+00 
4.908534582302e+01 1.000000000000e+00 
4.918150281090e+01 1.000000000000e+00 
4.918150281090e+01 1.000000000000e+00 
4.927669822982e+01 1.000000000000e+00 
4.927669822982e+01 1.000000000000e+00 
4.937094169467e+01 1.000000000000e+00 
4.937094169467e+01 1.000000000000e+00 
4.946424272674e+01 1.000000000000e+00 
4.946424272674e+01 1.000000000000e+00 
4.955661074807e+01 1.000000000000e+00 
4.955661074807e+01 1.000000000000e+00 
4.964805508619e+01 1.000000000000e+00 
4.964805508619e+01 1.000000000000e+00 
4.973858498134e+01 1.000000000000e+00 
4.973858498134e+01 1.000000000000e+00 
4.982820957952e+01 1.000000000000e+00 
4.982820957952e+01 1.000000000000e+00 
4.991693793441e+01 1.000000000000e+00 
4.991693793441e+01 1.000000000000e+00 
5.000477900513e+01 1.000000000000e+00 
5.000477900513e+01 1.000000000000e+00 
5.009174166220e+01 1.000000000000e+00 
5.009174166220e+01 1.000000000000e+00 
5.017783469342e+01 1.000000000000e+00 
5.017783469342e+01 1.000000000000e+00 
5.026306679729e+01 1.000000000000e+00 
5.026306679729e+01 1.000000000000e+00 
5.034744658083e+01 1.000000000000e+00 
5.034744658083e+01 1.000000000000e+00 
5.043098256532e+01 1.000000000000e+00 
5.043098256532e+01 1.000000000000e+00 
5.051368318814e+01 1.000000000000e+00 
5.051368318814e+01 1.000000000000e+00 
5.059555680435e+01 1.000000000000e+00 
5.059555680435e+01 1.000000000000e+00 
5.067661168431e+01 1.000000000000e+00 
5.067661168431e+01 1.000000000000e+00 
5.075685601533e+01 1.000000000000e+00 
5.075685601533e+01 1.000000000000e+00 
5.083629790336e+01 1.000000000000e+00 
5.083629790336e+01 1.000000000000e+00 
5.091494537457e+01 1.000000000000e+00 
5.091494537457e+01 1.000000000000e+00 
5.099280636884e+01 1.000000000000e+00 
5.099280636884e+01 1.000000000000e+00 
5.106988874950e+01 1.000000000000e+00 
5.106988874950e+01 1.000000000000e+00 
5.114620030911e+01 1.000000000000e+00 
5.114620030911e+01 1.000000000000e+00 
5.122174875440e+01 1.000000000000e+00 
5.122174875440e+01 1.000000000000e+00 
5.129654171632e+01 1.000000000000e+00 
5.129654171632e+01 1.000000000000e+00 
5.137058674720e+01 1.000000000000e+00 
5.137058674720e+01 1.000000000000e+00 
5.144389132669e+01 1.000000000000e+00 
5.144389132669e+01 1.000000000000e+00 
5.151646286296e+01 1.000000000000e+00 
5.151646286296e+01 1.000000000000e+00 
5.158830868202e+01 1.000000000000e+00 
5.158830868202e+01 1.000000000000e+00 
5.165943604158e+01 1.000000000000e+00 
5.165943604158e+01 1.000000000000e+00 
5.172985212829e+01 1.000000000000e+00 
5.172985212829e+01 1.000000000000e+00 
5.179956405512e+01 1.000000000000e+00 
5.179956405512e+01 1.000000000000e+00 
5.186857886278e+01 1.000000000000e+00 
5.186857886278e+01 1.000000000000e+00 
5.193690352121e+01 1.000000000000e+00 
5.193690352121e+01 1.000000000000e+00 
5.200454493503e+01 1.000000000000e+00 
5.200454493503e+01 1.000000000000e+00 
5.207150993669e+01 1.000000000000e+00 
5.207150993669e+01 1.000000000000e+00 
5.213780528793e+01 1.000000000000e+00 
5.213780528793e+01 1.000000000000e+00 
5.220343768520e+01 1.000000000000e+00 
5.220343768520e+01 1.000000000000e+00 
5.226841375694e+01 1.000000000000e+00 
5.226841375694e+01 1.000000000000e+00 
5.233274006904e+01 1.000000000000e+00 
5.233274006904e+01 1.000000000000e+00 
5.239642311780e+01 1.000000000000e+00 
5.239642311780e+01 1.000000000000e+00 
5.245946933558e+01 1.000000000000e+00 
5.245946933558e+01 1.000000000000e+00 
5.252188509188e+01 1.000000000000e+00 
5.252188509188e+01 1.000000000000e+00 
5.258367669068e+01 1.000000000000e+00 
5.258367669068e+01 1.000000000000e+00 
5.264485037160e+01 1.000000000000e+00 
5.264485037160e+01 1.000000000000e+00 
5.270541231541e+01 1.000000000000e+00 
5.270541231541e+01 1.000000000000e+00 
5.276536864094e+01 1.000000000000e+00 
5.276536864094e+01 1.000000000000e+00 
5.282472540242e+01 1.000000000000e+00 
5.282472540242e+01 1.000000000000e+00 
5.288348859877e+01 1.000000000000e+00 
5.288348859877e+01 1.000000000000e+00 
5.294166416273e+01 1.000000000000e+00 
5.294166416273e+01 1.000000000000e+00 
5.299925796983e+01 1.000000000000e+00 
5.299925796983e+01 1.000000000000e+00 
5.305627584002e+01 1.000000000000e+00 
5.305627584002e+01 1.000000000000e+00 
5.311272353041e+01 1.000000000000e+00 
5.311272353041e+01 1.000000000000e+00 
5.316860674471e+01 1.000000000000e+00 
5.316860674471e+01 1.000000000000e+00 
5.322393112608e+01 1.000000000000e+00 
5.322393112608e+01 1.000000000000e+00 
5.327870226254e+01 1.000000000000e+00 
5.327870226254e+01 1.000000000000e+00 
5.333292568789e+01 1.000000000000e+00 
5.333292568789e+01 1.000000000000e+00 
5.338660687891e+01 1.000000000000e+00 
5.338660687891e+01 1.000000000000e+00 
5.343975126043e+01 1.000000000000e+00 
5.343975126043e+01 1.000000000000e+00 
5.349236419825e+01 1.000000000000e+00 
5.349236419825e+01 1.000000000000e+00 
5.354445100440e+01 1.000000000000e+00 
5.354445100440e+01 1.000000000000e+00 
5.359601694229e+01 1.000000000000e+00 
5.359601694229e+01 1.000000000000e+00 
5.364706721946e+01 1.000000000000e+00 
5.364706721946e+01 1.000000000000e+00 
5.369760699289e+01 1.000000000000e+00 
5.369760699289e+01 1.000000000000e+00 
5.374764136991e+01 1.000000000000e+00 
5.374764136991e+01 1.000000000000e+00 
5.379717540517e+01 1.000000000000e+00 
5.379717540517e+01 1.000000000000e+00 
5.384621410165e+01 1.000000000000e+00 
5.384621410165e+01 1.000000000000e+00 
5.389476241171e+01 1.000000000000e+00 
5.389476241171e+01 1.000000000000e+00 
5.394282523804e+01 1.000000000000e+00 
5.394282523804e+01 1.000000000000e+00 
5.399040743473e+01 1.000000000000e+00 
5.399040743473e+01 1.000000000000e+00 
5.403751380815e+01 1.000000000000e+00 
5.403751380815e+01 1.000000000000e+00 
5.408414911801e+01 1.000000000000e+00 
5.408414911801e+01 1.000000000000e+00 
5.413031807408e+01 1.000000000000e+00 
5.413031807408e+01 1.000000000000e+00 
5.417602534143e+01 1.000000000000e+00 
5.417602534143e+01 1.000000000000e+00 
5.422127553706e+01 1.000000000000e+00 
5.422127553706e+01 1.000000000000e+00 
5.426607323102e+01 1.000000000000e+00 
5.426607323102e+01 1.000000000000e+00 
5.431042294717e+01 1.000000000000e+00 
5.431042294717e+01 1.000000000000e+00 
5.435432916428e+01 1.000000000000e+00 
5.435432916428e+01 1.000000000000e+00 
5.439779632085e+01 1.000000000000e+00 
5.439779632085e+01 1.000000000000e+00 
5.444082880791e+01 1.000000000000e+00 
5.444082880791e+01 1.000000000000e+00 
5.448343096979e+01 1.000000000000e+00 
5.448343096979e+01 1.000000000000e+00 
5.452560710930e+01 1.000000000000e+00 
5.452560710930e+01 1.000000000000e+00 
5.456736148841e+01 1.000000000000e+00 
5.456736148841e+01 1.000000000000e+00 
5.460869832099e+01 1.000000000000e+00 
5.460869832099e+01 1.000000000000e+00 
5.464962178599e+01 1.000000000000e+00 
5.464962178599e+01 1.000000000000e+00 
5.469013601585e+01 1.000000000000e+00 
5.469013601585e+01 1.000000000000e+00 
5.473024510163e+01 1.000000000000e+00 
5.473024510163e+01 1.000000000000e+00 
5.476995309773e+01 1.000000000000e+00 
5.476995309773e+01 1.000000000000e+00 
5.480926401467e+01 1.000000000000e+00 
5.480926401467e+01 1.000000000000e+00 
5.484818182384e+01 1.000000000000e+00 
5.484818182384e+01 1.000000000000e+00 
5.488671045437e+01 1.000000000000e+00 
5.488671045437e+01 1.000000000000e+00 
5.492485379792e+01 1.000000000000e+00 
5.492485379792e+01 1.000000000000e+00 
5.496261570951e+01 1.000000000000e+00 
5.496261570951e+01 1.000000000000e+00 
5.500000000000e+01 1.000000000000e+00 
5.500000000000e+01 1.000000000000e+00 
 TITLE = "Profiles along polylines"
 VARIABLES = "DIST" "SATURATION1" 
 ZONE T="TIME=1.797693134862e+308"
0.000000000000e+00 1.000000000000e+00 
0.000000000000e+00 1.000000000000e+00 
5.870104451498e-01 1.000000000000e+00 
5.870104451498e-01 1.000000000000e+00 
1.168150789010e+00 1.000000000000e+00 
1.168150789010e+00 1.000000000000e+00 
1.743479729825e+00 1.000000000000e+00 
1.743479729825e+00 1.000000000000e+00 
2.313055380762e+00 1.000000000000e+00 
2.313055380762e+00 1.000000000000e+00 
2.876935273408e+00 1.000000000000e+00 
2.876935273408e+00 1.000000000000e+00 
3.435176365294e+00 1.000000000000e+00 
3.435176365294e+00 1.000000000000e+00 
3.987835047236e+00 1.000000000000e+00 
3.987835047236e+00 1.000000000000e+00 
4.534967142357e+00 1.000000000000e+00 
4.534967142357e+00 1.000000000000e+00 
5.076627917461e+00 1.000000000000e+00 
5.076627917461e+00 1.000000000000e+00 
5.612872085824e+00 1.000000000000e+00 
5.612872085824e+00 1.000000000000e+00 
6.143753810163e+00 1.000000000000e+00 
6.143753810163e+00 1.000000000000e+00 
6.669326717615e+00 1.000000000000e+00 
6.669326717615e+00 1.000000000000e+00 
7.189643898175e+00 1.000000000000e+00 
7.189643898175e+00 1.000000000000e+00 
7.704757907243e+00 1.000000000000e+00 
7.704757907243e+00 1.000000000000e+00 
8.214720776254e+00 1.000000000000e+00 
8.214720776254e+00 1.000000000000e+00 
8.719584014911e+00 1.000000000000e+00 
8.719584014911e+00 1.000000000000e+00 
9.219398621660e+00 1.000000000000e+00 
9.219398621660e+00 1.000000000000e+00 
9.714215085540e+00 1.000000000000e+00 
9.714215085540e+00 1.000000000000e+00 
1.020408338451e+01 1.000000000000e+00 
1.020408338451e+01 1.000000000000e+00 
1.068905299897e+01 1.000000000000e+00 
1.068905299897e+01 1.000000000000e+00 
1.116917291825e+01 1.000000000000e+00 
1.116917291825e+01 1.000000000000e+00 
1.164449163786e+01 1.000000000000e+00 
1.164449163786e+01 1.000000000000e+00 
1.211505716936e+01 1.000000000000e+00 
1.211505716936e+01 1.000000000000e+00 
1.258091704590e+01 1.000000000000e+00 
1.258091704590e+01 1.000000000000e+00 
1.304211832362e+01 1.000000000000e+00 
1.304211832362e+01 1.000000000000e+00 
1.349870758703e+01 1.000000000000e+00 
1.349870758703e+01 1.000000000000e+00 
1.395073095844e+01 1.000000000000e+00 
1.395073095844e+01 1.000000000000e+00 
1.439823409895e+01 1.000000000000e+00 
1.439823409895e+01 1.000000000000e+00 
1.484126220542e+01 1.000000000000e+00 
1.484126220542e+01 1.000000000000e+00 
1.527986002789e+01 1.000000000000e+00 
1.527986002789e+01 1.000000000000e+00 
1.571407187434e+01 1.000000000000e+00 
1.571407187434e+01 1.000000000000e+00 
1.614394160322e+01 1.000000000000e+00 
1.614394160322e+01 1.000000000000e+00 
1.656951263238e+01 1.000000000000e+00 
1.656951263238e+01 1.000000000000e+00 
1.699082795193e+01 1.000000000000e+00 
1.699082795193e+01 1.000000000000e+00 
1.740793012051e+01 1.000000000000e+00 
1.740793012051e+01 1.000000000000e+00 
1.782086126570e+01 1.000000000000e+00 
1.782086126570e+01 1.000000000000e+00 
1.822966309670e+01 9.943186976941e-01 
1.822966309670e+01 9.895462500944e-01 
1.863437691268e+01 9.001869470753e-01 
1.863437691268e+01 9.060039034793e-01 
1.903504359047e+01 8.248248946549e-01 
1.903504359047e+01 8.294188087789e-01 
1.943170360126e+01 7.663297219006e-01 
1.943170360126e+01 7.699387764731e-01 
1.982439701443e+01 7.203546988589e-01 
1.982439701443e+01 7.232515212999e-01 
2.021316349346e+01 6.833472829696e-01 
2.021316349346e+01 6.857290956605e-01 
2.059804230795e+01 6.528629232970e-01 
2.059804230795e+01 6.548640017371e-01 
2.097907233341e+01 6.272452913384e-01 
2.097907233341e+01 6.289576517295e-01 
2.135629205906e+01 6.053519412768e-01 
2.135629205906e+01 6.068400666442e-01 
2.172973958734e+01 5.863747368661e-01 
2.172973958734e+01 5.876849689532e-01 
2.209945263757e+01 5.697272850779e-01 
2.209945263757e+01 5.708937429076e-01 
2.246546855765e+01 5.549739479429e-01 
2.246546855765e+01 5.560223112621e-01 
2.282782431917e+01 5.417841602790e-01 
2.282782431917e+01 5.427341420683e-01 
2.318655652091e+01 5.299023179426e-01 
2.318655652091e+01 5.307693188863e-01 
2.354170140024e+01 5.191274467619e-01 
2.354170140024e+01 5.199236880684e-01 
2.389329483225e+01 5.092991600965e-01 
2.389329483225e+01 5.100344760122e-01 
2.424137233281e+01 5.002877535813e-01 
2.424137233281e+01 5.009701569168e-01 
2.458596905759e+01 4.919870827755e-01 
2.458596905759e+01 4.926231758327e-01 
2.492711981332e+01 4.843093510353e-01 
2.492711981332e+01 4.849046291710e-01 
2.526485906059e+01 4.771812343802e-01 
2.526485906059e+01 4.777403136651e-01 
2.559922091678e+01 4.705409580503e-01 
2.559922091678e+01 4.710677483701e-01 
2.593023915458e+01 4.643360616349e-01 
2.593023915458e+01 4.648338999781e-01 
2.625794720904e+01 4.585216694816e-01 
2.625794720904e+01 4.589934237653e-01 
2.658237818411e+01 4.530591372641e-01 
2.658237818411e+01 4.535072880748e-01 
2.690356485117e+01 4.479149820879e-01 
2.690356485117e+01 4.483416876703e-01 
2.722153965161e+01 4.430600285126e-01 
2.722153965161e+01 4.434671769101e-01 
2.753633470324e+01 4.384687209113e-01 
2.753633470324e+01 4.388579721521e-01 
2.784798180276e+01 4.341185653543e-01 
2.784798180276e+01 4.344913858503e-01 
2.815651243212e+01 4.299896730814e-01 
2.815651243212e+01 4.303473638832e-01 
2.846195775696e+01 4.260643845778e-01 
2.846195775696e+01 4.264081047406e-01 
2.876434862800e+01 4.223269578571e-01 
2.876434862800e+01 4.226577438872e-01 
2.906371559222e+01 4.187633083049e-01 
2.906371559222e+01 4.190820904399e-01 
2.936008888632e+01 4.153607906022e-01 
2.936008888632e+01 4.156684065181e-01 
2.965349844695e+01 4.121080145651e-01 
2.965349844695e+01 4.124052209761e-01 
2.994397391269e+01 4.092821716090e-01 
2.994397391269e+01 4.089946890839e-01 
3.023154462176e+01 4.062898707947e-01 
3.023154462176e+01 4.060114892002e-01 
3.051623962214e+01 4.031499422159e-01 
3.051623962214e+01 4.034197904073e-01 
3.079808767322e+01 4.004023298816e-01 
3.079808767322e+01 4.006641630067e-01 
3.107711724341e+01 3.977616040147e-01 
3.107711724341e+01 3.980158966165e-01 
3.135335651994e+01 3.952213132798e-01 
3.135335651994e+01 3.954685007951e-01 
3.162683340262e+01 3.927755396618e-01 
3.162683340262e+01 3.930160225075e-01 
3.189757551279e+01 3.904188428998e-01 
3.189757551279e+01 3.906529900464e-01 
3.216561020377e+01 3.881462118268e-01 
3.216561020377e+01 3.883743639347e-01 
3.243096454952e+01 3.859530218143e-01 
3.243096454952e+01 3.861754939939e-01 
3.269366535024e+01 3.838349971450e-01 
3.269366535024e+01 3.840520813934e-01 
3.295373914191e+01 3.817881777410e-01 
3.295373914191e+01 3.820001450996e-01 
3.321121219744e+01 3.798088897549e-01 
3.321121219744e+01 3.800159922238e-01 
3.346611052380e+01 3.778937194767e-01 
3.346611052380e+01 3.780961917192e-01 
3.371845986730e+01 3.760394900396e-01 
3.371845986730e+01 3.762375509027e-01 
3.396828571874e+01 3.742432406281e-01 
3.396828571874e+01 3.744370945017e-01 
3.421561331035e+01 3.725022079337e-01 
3.421561331035e+01 3.726920459697e-01 
3.446046762505e+01 3.708138094416e-01 
3.446046762505e+01 3.709998106487e-01 
3.470287339729e+01 3.691756284700e-01 
3.470287339729e+01 3.693579606988e-01 
3.494285510986e+01 3.675854007238e-01 
3.494285510986e+01 3.677642215560e-01 
3.518043700691e+01 3.660410020593e-01 
3.518043700691e+01 3.662164596106e-01 
3.541564308728e+01 3.645404375488e-01 
3.541564308728e+01 3.647126711965e-01 
3.564849710360e+01 3.630818315405e-01 
3.564849710360e+01 3.632509725832e-01 
3.587902257706e+01 3.616634185453e-01 
3.587902257706e+01 3.618295908026e-01 
3.610724279709e+01 3.602835350464e-01 
3.610724279709e+01 3.604468554041e-01 
3.633318081799e+01 3.589406120609e-01 
3.633318081799e+01 3.591011909688e-01 
3.655685945957e+01 3.576331683352e-01 
3.655685945957e+01 3.577911102613e-01 
3.677830131170e+01 3.563598041080e-01 
3.677830131170e+01 3.565152079539e-01 
3.699752874307e+01 3.551191953843e-01 
3.699752874307e+01 3.552721548653e-01 
3.721456390146e+01 3.539100887373e-01 
3.721456390146e+01 3.540606927320e-01 
3.742942871004e+01 3.527312965642e-01 
3.742942871004e+01 3.528796294342e-01 
3.764214487180e+01 3.515816926840e-01 
3.764214487180e+01 3.517278345691e-01 
3.785273386982e+01 3.504602083125e-01 
3.785273386982e+01 3.506042354019e-01 
3.806121697578e+01 3.495078130953e-01 
3.806121697578e+01 3.493658283128e-01 
3.826761525399e+01 3.484375992574e-01 