 TITLE = "Profiles along polylines"
 VARIABLES = "DIST" "SATURATION1" 
 ZONE T="TIME=0.000000000000e+00"
0.000000000000e+00 1.000000000000e+00 
5.870104451498e-01 1.000000000000e+00 
1.168150789010e+00 1.000000000000e+00 
1.743479729825e+00 1.000000000000e+00 
2.313055380762e+00 1.000000000000e+00 
2.876935273408e+00 1.000000000000e+00 
3.435176365294e+00 1.000000000000e+00 
3.987835047236e+00 1.000000000000e+00 
4.534967142357e+00 1.000000000000e+00 
5.076627917461e+00 1.000000000000e+00 
5.612872085824e+00 1.000000000000e+00 
6.143753810163e+00 1.000000000000e+00 
6.669326717615e+00 1.000000000000e+00 
7.189643898175e+00 1.000000000000e+00 
7.704757907243e+00 1.000000000000e+00 
8.214720776254e+00 1.000000000000e+00 
8.719584014911e+00 1.000000000000e+00 
9.219398621660e+00 1.000000000000e+00 
9.714215085540e+00 1.000000000000e+00 
1.020408338451e+01 1.000000000000e+00 
1.068905299897e+01 1.000000000000e+00 
1.116917291825e+01 1.000000000000e+00 
1.164449163786e+01 1.000000000000e+00 
1.211505716936e+01 1.000000000000e+00 
1.258091704590e+01 1.000000000000e+00 
1.304211832362e+01 1.000000000000e+00 
1.349870758703e+01 1.000000000000e+00 
1.395073095844e+01 1.000000000000e+00 
1.439823409895e+01 1.000000000000e+00 
1.484126220542e+01 1.000000000000e+00 
1.527986002789e+01 1.000000000000e+00 
1.571407187434e+01 1.000000000000e+00 
1.614394160322e+01 1.000000000000e+00 
1.656951263238e+01 1.000000000000e+00 
1.699082795193e+01 1.000000000000e+00 
1.740793012051e+01 1.000000000000e+00 
1.782086126570e+01 1.000000000000e+00 
1.822966309670e+01 1.000000000000e+00 
1.863437691268e+01 1.000000000000e+00 
1.903504359047e+01 1.000000000000e+00 
1.943170360126e+01 1.000000000000e+00 
1.982439701443e+01 1.000000000000e+00 
2.021316349346e+01 1.000000000000e+00 
2.059804230795e+01 1.000000000000e+00 
2.097907233341e+01 1.000000000000e+00 
2.135629205906e+01 1.000000000000e+00 
2.172973958734e+01 1.000000000000e+00 
2.209945263757e+01 1.000000000000e+00 
2.246546855765e+01 1.000000000000e+00 
2.282782431917e+01 1.000000000000e+00 
2.318655652091e+01 1.000000000000e+00 
2.354170140024e+01 1.000000000000e+00 
2.389329483225e+01 1.000000000000e+00 
2.424137233281e+01 1.000000000000e+00 
2.458596905759e+01 1.000000000000e+00 
2.492711981332e+01 1.000000000000e+00 
2.526485906059e+01 1.000000000000e+00 
2.559922091678e+01 1.000000000000e+00 
2.593023915458e+01 1.000000000000e+00 
2.625794720904e+01 1.000000000000e+00 
2.658237818411e+01 1.000000000000e+00 
2.690356485117e+01 1.000000000000e+00 
2.722153965161e+01 1.000000000000e+00 
2.753633470324e+01 1.000000000000e+00 
2.784798180276e+01 1.000000000000e+00 
2.815651243212e+01 1.000000000000e+00 
2.846195775696e+01 1.000000000000e+00 
2.876434862800e+01 1.000000000000e+00 
2.906371559222e+01 1.000000000000e+00 
2.936008888632e+01 1.000000000000e+00 
2.965349844695e+01 1.000000000000e+00 
2.994397391269e+01 1.000000000000e+00 
3.023154462176e+01 1.000000000000e+00 
3.051623962214e+01 1.000000000000e+00 
3.079808767322e+01 1.000000000000e+00 
3.107711724341e+01 1.000000000000e+00 
3.135335651994e+01 1.000000000000e+00 
3.162683340262e+01 1.000000000000e+00 
3.189757551279e+01 1.000000000000e+00 
3.216561020377e+01 1.000000000000e+00 
3.243096454952e+01 1.000000000000e+00 
3.269366535024e+01 1.000000000000e+00 
3.295373914191e+01 1.000000000000e+00 
3.321121219744e+01 1.000000000000e+00 
3.346611052380e+01 1.000000000000e+00 
3.371845986730e+01 1.000000000000e+00 
3.396828571874e+01 1.000000000000e+00 
3.421561331035e+01 1.000000000000e+00 
3.446046762505e+01 1.000000000000e+00 
3.470287339729e+01 1.000000000000e+00 
3.494285510986e+01 1.000000000000e+00 
3.518043700691e+01 1.000000000000e+00 
3.541564308728e+01 1.000000000000e+00 
3.564849710360e+01 1.000000000000e+00 
3.587902257706e+01 1.000000000000e+00 
3.610724279709e+01 1.000000000000e+00 
3.633318081799e+01 1.000000000000e+00 
3.655685945957e+01 1.000000000000e+00 
3.677830131170e+01 1.000000000000e+00 
3.699752874307e+01 1.000000000000e+00 
3.721456390146e+01 1.000000000000e+00 
3.742942871004e+01 1.000000000000e+00 
3.764214487180e+01 1.000000000000e+00 
3.785273386982e+01 1.000000000000e+00 
3.806121697578e+01 1.000000000000e+00 
3.826761525399e+01 1.000000000000e+00 
3.847194955000e+01 1.000000000000e+00 
3.867424050154e+01 1.000000000000e+00 
3.887450854416e+01 1.000000000000e+00 
3.907277390645e+01 1.000000000000e+00 
3.926905661414e+01 1.000000000000e+00 
3.946337649433e+01 1.000000000000e+00 
3.965575317905e+01 1.000000000000e+00 
3.984620609817e+01 1.000000000000e+00 
4.003475448512e+01 1.000000000000e+00 
4.022141738721e+01 1.000000000000e+00 
4.040621366003e+01 1.000000000000e+00 
4.058916197154e+01 1.000000000000e+00 
4.077028080162e+01 1.000000000000e+00 
4.094958844186e+01 1.000000000000e+00 
4.112710300326e+01 1.000000000000e+00 
4.130284241994e+01 1.000000000000e+00 
4.147682444440e+01 1.000000000000e+00 
4.164906664717e+01 1.000000000000e+00 
4.181958642849e+01 1.000000000000e+00 
4.198840101358e+01 1.000000000000e+00 
4.215552745206e+01 1.000000000000e+00 
4.232098262548e+01 1.000000000000e+00 
4.248478324662e+01 1.000000000000e+00 
4.264694586287e+01 1.000000000000e+00 
4.280748685528e+01 1.000000000000e+00 
4.296642243838e+01 1.000000000000e+00 
4.312376866238e+01 1.000000000000e+00 
4.327954142159e+01 1.000000000000e+00 
4.343375645294e+01 1.000000000000e+00 
4.358642933514e+01 1.000000000000e+00 
4.373757549184e+01 1.000000000000e+00 
4.388721018651e+01 1.000000000000e+00 
4.403534853386e+01 1.000000000000e+00 
4.418200549861e+01 1.000000000000e+00 
4.432719589038e+01 1.000000000000e+00 
4.447093437909e+01 1.000000000000e+00 
4.461323548534e+01 1.000000000000e+00 
4.475411357948e+01 1.000000000000e+00 
4.489358289262e+01 1.000000000000e+00 
4.503165751129e+01 1.000000000000e+00 
4.516835138443e+01 1.000000000000e+00 
4.530367831790e+01 1.000000000000e+00 
4.543765198153e+01 1.000000000000e+00 
4.557028591168e+01 1.000000000000e+00 
4.570159350173e+01 1.000000000000e+00 
4.583158801313e+01 1.000000000000e+00 
4.596028257790e+01 1.000000000000e+00 
4.608769019726e+01 1.000000000000e+00 
4.621382374399e+01 1.000000000000e+00 
4.633869595776e+01 1.000000000000e+00 
4.646231944592e+01 1.000000000000e+00 
4.658470669613e+01 1.000000000000e+00 
4.670587007374e+01 1.000000000000e+00 
4.682582182039e+01 1.000000000000e+00 
4.694457405235e+01 1.000000000000e+00 
4.706213876301e+01 1.000000000000e+00 
4.717852782535e+01 1.000000000000e+00 
4.729375299423e+01 1.000000000000e+00 
4.740782591300e+01 1.000000000000e+00 
4.752075810333e+01 1.000000000000e+00 
4.763256097182e+01 1.000000000000e+00 
4.774324581220e+01 1.000000000000e+00 
4.785282380358e+01 1.000000000000e+00 
4.796130601263e+01 1.000000000000e+00 
4.806870340003e+01 1.000000000000e+00 
4.817502681425e+01 1.000000000000e+00 
4.828028699402e+01 1.000000000000e+00 
4.838449457434e+01 1.000000000000e+00 
4.848766007648e+01 1.000000000000e+00 
4.858979392242e+01 1.000000000000e+00 
4.869090643273e+01 1.000000000000e+00 
4.879100781637e+01 1.000000000000e+00 
4.889010818521e+01 1.000000000000e+00 
4.898821755173e+01 1.000000000000e+00 
4.908534582302e+01 1.000000000000e+00 
4.918150281090e+01 1.000000000000e+00 
4.927669822982e+01 1.000000000000e+00 
4.937094169467e+01 1.000000000000e+00 
4.946424272674e+01 1.000000000000e+00 
4.955661074807e+01 1.000000000000e+00 
4.964805508619e+01 1.000000000000e+00 
4.973858498134e+01 1.000000000000e+00 
4.982820957952e+01 1.000000000000e+00 
4.991693793441e+01 1.000000000000e+00 
5.000477900513e+01 1.000000000000e+00 
5.009174166220e+01 1.000000000000e+00 
5.017783469342e+01 1.000000000000e+00 
5.026306679729e+01 1.000000000000e+00 
5.034744658083e+01 1.000000000000e+00 
5.043098256532e+01 1.000000000000e+00 
5.051368318814e+01 1.000000000000e+00 
5.059555680435e+01 1.000000000000e+00 
5.067661168431e+01 1.000000000000e+00 
5.075685601533e+01 1.000000000000e+00 
5.083629790336e+01 1.000000000000e+00 
5.091494537457e+01 1.000000000000e+00 
5.099280636884e+01 1.000000000000e+00 
5.106988874950e+01 1.000000000000e+00 
5.114620030911e+01 1.000000000000e+00 
5.122174875440e+01 1.000000000000e+00 
5.129654171632e+01 1.000000000000e+00 
5.137058674720e+01 1.000000000000e+00 
5.144389132669e+01 1.000000000000e+00 
5.151646286296e+01 1.000000000000e+00 
5.158830868202e+01 1.000000000000e+00 
5.165943604158e+01 1.000000000000e+00 
5.172985212829e+01 1.000000000000e+00 
5.179956405512e+01 1.000000000000e+00 
5.186857886278e+01 1.000000000000e+00 
5.193690352121e+01 1.000000000000e+00 
5.200454493503e+01 1.000000000000e+00 
5.207150993669e+01 1.000000000000e+00 
5.213780528793e+01 1.000000000000e+00 
5.220343768520e+01 1.000000000000e+00 
5.226841375694e+01 1.000000000000e+00 
5.233274006904e+01 1.000000000000e+00 
5.239642311780e+01 1.000000000000e+00 
5.245946933558e+01 1.000000000000e+00 
5.252188509188e+01 1.000000000000e+00 
5.258367669068e+01 1.000000000000e+00 
5.264485037160e+01 1.000000000000e+00 
5.270541231541e+01 1.000000000000e+00 
5.276536864094e+01 1.000000000000e+00 
5.282472540242e+01 1.000000000000e+00 
5.288348859877e+01 1.000000000000e+00 
5.294166416273e+01 1.000000000000e+00 
5.299925796983e+01 1.000000000000e+00 
5.305627584002e+01 1.000000000000e+00 
5.311272353041e+01 1.000000000000e+00 
5.316860674471e+01 1.000000000000e+00 
5.322393112608e+01 1.000000000000e+00 
5.327870226254e+01 1.000000000000e+00 
5.333292568789e+01 1.000000000000e+00 
5.338660687891e+01 1.000000000000e+00 
5.343975126043e+01 1.000000000000e+00 
5.349236419825e+01 1.000000000000e+00 
5.354445100440e+01 1.000000000000e+00 
5.359601694229e+01 1.000000000000e+00 
5.364706721946e+01 1.000000000000e+00 
5.369760699289e+01 1.000000000000e+00 
5.374764136991e+01 1.000000000000e+00 
5.379717540517e+01 1.000000000000e+00 
5.384621410165e+01 1.000000000000e+00 
5.389476241171e+01 1.000000000000e+00 
5.394282523804e+01 1.000000000000e+00 
5.399040743473e+01 1.000000000000e+00 
5.403751380815e+01 1.000000000000e+00 
5.408414911801e+01 1.000000000000e+00 
5.413031807408e+01 1.000000000000e+00 
5.417602534143e+01 1.000000000000e+00 
5.422127553706e+01 1.000000000000e+00 
5.426607323102e+01 1.000000000000e+00 
5.431042294717e+01 1.000000000000e+00 
5.435432916428e+01 1.000000000000e+00 
5.439779632085e+01 1.000000000000e+00 
5.444082880791e+01 1.000000000000e+00 
5.448343096979e+01 1.000000000000e+00 
5.452560710930e+01 1.000000000000e+00 
5.456736148841e+01 1.000000000000e+00 
5.460869832099e+01 1.000000000000e+00 
5.464962178599e+01 1.000000000000e+00 
5.469013601585e+01 1.000000000000e+00 
5.473024510163e+01 1.000000000000e+00 
5.476995309773e+01 1.000000000000e+00 
5.480926401467e+01 1.000000000000e+00 
5.484818182384e+01 1.000000000000e+00 
5.488671045437e+01 1.000000000000e+00 
5.492485379792e+01 1.000000000000e+00 
5.496261570951e+01 1.000000000000e+00 
5.500000000000e+01 1.000000000000e+00 
 TITLE = "Profiles along polylines"
 VARIABLES = "DIST" "SATURATION1" 
 ZONE T="TIME=1.797693134862e+308"
0.000000000000e+00 1.000000000000e+00 
5.870104451498e-01 1.000000000000e+00 
1.168150789010e+00 1.000000000000e+00 
1.743479729825e+00 1.000000000000e+00 
2.313055380762e+00 1.000000000000e+00 
2.876935273408e+00 1.000000000000e+00 
3.435176365294e+00 1.000000000000e+00 
3.987835047236e+00 1.000000000000e+00 
4.534967142357e+00 1.000000000000e+00 
5.076627917461e+00 1.000000000000e+00 
5.612872085824e+00 1.000000000000e+00 
6.143753810163e+00 1.000000000000e+00 
6.669326717615e+00 1.000000000000e+00 
7.189643898175e+00 1.000000000000e+00 
7.704757907243e+00 1.000000000000e+00 
8.214720776254e+00 1.000000000000e+00 
8.719584014911e+00 1.000000000000e+00 
9.219398621660e+00 1.000000000000e+00 
9.714215085540e+00 1.000000000000e+00 
1.020408338451e+01 1.000000000000e+00 
1.068905299897e+01 1.000000000000e+00 
1.116917291825e+01 1.000000000000e+00 
1.164449163786e+01 1.000000000000e+00 
1.211505716936e+01 1.000000000000e+00 
1.258091704590e+01 1.000000000000e+00 
1.304211832362e+01 1.000000000000e+00 
1.349870758703e+01 1.000000000000e+00 
1.395073095844e+01 1.000000000000e+00 
1.439823409895e+01 1.000000000000e+00 
1.484126220542e+01 1.000000000000e+00 
1.527986002789e+01 1.000000000000e+00 
1.571407187434e+01 1.000000000000e+00 
1.614394160322e+01 1.000000000000e+00 
1.656951263238e+01 1.000000000000e+00 
1.699082795193e+01 1.000000000000e+00 
1.740793012051e+01 1.000000000000e+00 
1.782086126570e+01 1.000000000000e+00 
1.822966309670e+01 1.000000000000e+00 
1.863437691268e+01 1.000000000000e+00 
1.903504359047e+01 1.000000000000e+00 
1.943170360126e+01 1.000000000000e+00 
1.982439701443e+01 1.000000000000e+00 
2.021316349346e+01 1.000000000000e+00 
2.059804230795e+01 1.000000000000e+00 
2.097907233341e+01 1.000000000000e+00 
2.135629205906e+01 1.000000000000e+00 
2.172973958734e+01 1.000000000000e+00 
2.209945263757e+01 9.318249386237e-01 
2.246546855765e+01 8.565810815041e-01 
2.282782431917e+01 7.962849718184e-01 
2.318655652091e+01 7.483087257287e-01 
2.354170140024e+01 7.094923870858e-01 
2.389329483225e+01 6.774495138944e-01 
2.424137233281e+01 6.505013499048e-01 
2.458596905759e+01 6.274683678719e-01 
2.492711981332e+01 6.075077393210e-01 
2.526485906059e+01 5.900043273529e-01 
2.559922091678e+01 5.744995594634e-01 
2.593023915458e+01 5.606447514835e-01 
2.625794720904e+01 5.481699664278e-01 
2.658237818411e+01 5.368628230111e-01 
2.690356485117e+01 5.265537816851e-01 
2.722153965161e+01 5.171057283692e-01 
2.753633470324e+01 5.084064658657e-01 
2.784798180276e+01 5.003632100698e-01 
2.815651243212e+01 4.928984928678e-01 
2.846195775696e+01 4.859470689819e-01 
2.876434862800e+01 4.794535499982e-01 
2.906371559222e+01 4.733705727241e-01 
2.936008888632e+01 4.676573660203e-01 
2.965349844695e+01 4.622786173774e-01 
2.994397391269e+01 4.572035685021e-01 
3.023154462176e+01 4.524052872745e-01 
3.051623962214e+01 4.478600766748e-01 
3.079808767322e+01 4.435469915870e-01 
3.107711724341e+01 4.394474409525e-01 
3.135335651994e+01 4.355448578260e-01 
3.162683340262e+01 4.318244244214e-01 
3.189757551279e+01 4.282728412738e-01 
3.216561020377e+01 4.248781325433e-01 
3.243096454952e+01 4.216294812425e-01 
3.269366535024e+01 4.185170886820e-01 
3.295373914191e+01 4.155320541653e-01 
3.321121219744e+01 4.126662717021e-01 
3.346611052380e+01 4.099123409339e-01 
3.371845986730e+01 4.072634898927e-01 
3.396828571874e+01 4.047135078562e-01 
3.421561331035e+01 4.022566868536e-01 
3.446046762505e+01 3.998877703473e-01 
3.470287339729e+01 3.976019082555e-01 
3.494285510986e+01 3.953946173746e-01 
3.518043700691e+01 3.932617462795e-01 
3.541564308728e+01 3.911994444098e-01 
3.564849710360e+01 3.892041345662e-01 
3.587902257706e+01 3.872724882959e-01 
3.610724279709e+01 3.854014040506e-01 
3.633318081799e+01 3.835879876731e-01 
3.655685945957e+01 3.818295348715e-01 
3.677830131170e+01 3.801235154436e-01 
3.699752874307e+01 3.784675590442e-01 
3.721456390146e+01 3.768594424096e-01 
3.742942871004e+01 3.752970778393e-01 
3.764214487180e+01 3.737785027088e-01 
3.785273386982e+01 3.723018699869e-01 
3.806121697578e+01 3.708654395622e-01 
3.826761525399e+01 3.694675703808e-01 
3.847194955000e+01 3.681067133810e-01 
3.867424050154e+01 3.667814048960e-01 
3.887450854416e+01 3.654902606572e-01 
3.907277390645e+01 3.642319703683e-01 
3.926905661414e+01 3.630052926748e-01 
3.946337649433e+01 3.618090505441e-01 
3.965575317905e+01 3.606421270223e-01 
3.984620609817e+01 3.595034613910e-01 
4.003475448512e+01 3.583920455494e-01 
4.022141738721e+01 3.573069206495e-01 
4.040621366003e+01 3.562471740782e-01 
4.058916197154e+01 3.552119366106e-01 
4.077028080162e+01 3.542003798001e-01 
4.094958844186e+01 3.532117135567e-01 
4.112710300326e+01 3.522451838579e-01 
4.130284241994e+01 3.513000706429e-01 
4.147682444440e+01 3.503756859002e-01 
4.164906664717e+01 3.494713718637e-01 
4.181958642849e+01 3.485864992706e-01 
4.198840101358e+01 3.477204658214e-01 
4.215552745206e+01 3.468726947203e-01 
4.232098262548e+01 3.460426332727e-01 
4.248478324662e+01 3.452297516139e-01 
4.264694586287e+01 3.444335415001e-01 
4.280748685528e+01 3.436535151966e-01 
4.296642243838e+01 3.428892044330e-01 
4.312376866238e+01 3.421401594119e-01 
4.327954142159e+01 3.414059478484e-01 
4.343375645294e+01 3.406861541156e-01 
4.358642933514e+01 3.399803784365e-01 
4.373757549184e+01 3.392882361076e-01 
4.388721018651e+01 3.386093568039e-01 
4.403534853386e+01 3.379433838519e-01 
4.418200549861e+01 3.372899735987e-01 
4.432719589038e+01 3.366487948356e-01 
4.447093437909e+01 3.360195281639e-01 
4.461323548534e+01 3.354018655048e-01 
4.475411357948e+01 3.347955095981e-01 
4.489358289262e+01 3.342001734785e-01 
4.503165751129e+01 3.336155800491e-01 
4.516835138443e+01 3.330414616252e-01 
4.530367831790e+01 3.324775595552e-01 
4.543765198153e+01 3.319236238091e-01 
4.557028591168e+01 3.313794126067e-01 
4.570159350173e+01 3.308446921142e-01 
4.583158801313e+01 3.303192360735e-01 
4.596028257790e+01 3.298028254844e-01 
4.608769019726e+01 3.292952483172e-01 
4.621382374399e+01 3.287962992264e-01 
4.633869595776e+01 3.283057793044e-01 
4.646231944592e+01 3.278234958271e-01 
4.658470669613e+01 3.273492619657e-01 
4.670587007374e+01 3.268828965705e-01 
4.682582182039e+01 3.264242239606e-01 
4.694457405235e+01 3.259730737240e-01 
4.706213876301e+01 3.255292805121e-01 
4.717852782535e+01 3.250926838434e-01 
4.729375299423e+01 3.246631279165e-01 
4.740782591300e+01 3.242404614166e-01 
4.752075810333e+01 3.238245373909e-01 
4.763256097182e+01 3.234152130692e-01 
4.774324581220e+01 3.230123497087e-01 
4.785282380358e+01 3.226158124592e-01 
4.796130601263e+01 3.222254702203e-01 
4.806870340003e+01 3.218411954897e-01 
4.817502681425e+01 3.214628642622e-01 
4.828028699402e+01 3.210903559037e-01 
4.838449457434e+01 3.207235530166e-01 
4.848766007648e+01 3.203623413678e-01 
4.858979392242e+01 3.200066097341e-01 
4.869090643273e+01 3.196562498116e-01 
4.879100781637e+01 3.193111561564e-01 
4.889010818521e+01 3.189712260431e-01 
4.898821755173e+01 3.186363593864e-01 
4.908534582302e+01 3.183064586779e-01 
4.918150281090e+01 3.179814288721e-01 
4.927669822982e+01 3.176611773162e-01 
4.937094169467e+01 3.173456136849e-01 
4.946424272674e+01 3.170346498886e-01 
4.955661074807e+01 3.167282000255e-01 
4.964805508619e+01 3.164261802999e-01 
4.973858498134e+01 3.161285089359e-01 
4.982820957952e+01 3.158351061408e-01 
4.991693793441e+01 3.155458940405e-01 
5.000477900513e+01 3.152607966314e-01 
5.009174166220e+01 3.149797397074e-01 
5.017783469342e+01 3.147026507896e-01 
5.026306679729e+01 3.144294590983e-01 
5.034744658083e+01 3.141600955125e-01 
5.043098256532e+01 3.138944925053e-01 
5.051368318814e+01 3.136325840942e-01 
5.059555680435e+01 3.133743057940e-01 
5.067661168431e+01 3.131195945828e-01 
5.075685601533e+01 3.128683888581e-01 
5.083629790336e+01 3.126206283932e-01 
5.091494537457e+01 3.123762542958e-01 
5.099280636884e+01 3.121352089932e-01 
5.106988874950e+01 3.118974361675e-01 
5.114620030911e+01 3.116628807057e-01 
5.122174875440e+01 3.114314887141e-01 
5.129654171632e+01 3.112032074574e-01 
5.137058674720e+01 3.109779853371e-01 
5.144389132669e+01 3.107557718458e-01 
5.151646286296e+01 3.105365175359e-01 
5.158830868202e+01 3.103201740255e-01 
5.165943604158e+01 3.101066939307e-01 
5.172985212829e+01 3.098960308498e-01 
5.179956405512e+01 3.096881393471e-01 
5.186857886278e+01 3.094829749255e-01 
5.193690352121e+01 3.092804939998e-01 
5.200454493503e+01 3.090806538592e-01 
5.207150993669e+01 3.088834126669e-01 
5.213780528793e+01 3.086887294351e-01 
5.220343768520e+01 3.084965639905e-01 
5.226841375694e+01 3.083068769624e-01 
5.233274006904e+01 3.081196297497e-01 
5.239642311780e+01 3.079347845231e-01 
5.245946933558e+01 3.077523041918e-01 
5.252188509188e+01 3.075721523842e-01 
5.258367669068e+01 3.073942934393e-01 
5.264485037160e+01 3.072186923880e-01 
5.270541231541e+01 3.070453149225e-01 
5.276536864094e+01 3.068741273907e-01 
5.282472540242e+01 3.067050967896e-01 
5.288348859877e+01 3.065381907253e-01 
5.294166416273e+01 3.063733774311e-01 
5.299925796983e+01 3.062106257289e-01 
5.305627584002e+01 3.060499050122e-01 
5.311272353041e+01 3.058911852554e-01 
5.316860674471e+01 3.057344369746e-01 
5.322393112608e+01 3.055796312373e-01 
5.327870226254e+01 3.054267396359e-01 
5.333292568789e+01 3.052757342746e-01 
5.338660687891e+01 3.051265877674e-01 
5.343975126043e+01 3.049792732136e-01 
5.349236419825e+01 3.048337642080e-01 
5.354445100440e+01 3.046900348170e-01 
5.359601694229e+01 3.045480595553e-01 
5.364706721946e+01 3.044078133971e-01 
5.369760699289e+01 3.042692717529e-01 
5.374764136991e+01 3.041324104591e-01 
5.379717540517e+01 3.039972057777e-01 
5.384621410165e+01 3.038636343864e-01 
5.389476241171e+01 3.037316733673e-01 
5.394282523804e+01 3.036013001980e-01 
5.399040743473e+01 3.034724927406e-01 
5.403751380815e+01 3.033452292330e-01 
5.408414911801e+01 3.032194882789e-01 
5.413031807408e+01 3.030952488507e-01 
5.417602534143e+01 3.029724902684e-01 
5.422127553706e+01 3.028511922031e-01 
5.426607323102e+01 3.027313346673e-01 
5.431042294717e+01 3.026128980076e-01 
5.435432916428e+01 3.024958628959e-01 
5.439779632085e+01 3.023802103111e-01 
5.444082880791e+01 3.022659215529e-01 
5.448343096979e+01 3.021529782345e-01 
5.452560710930e+01 3.020413622639e-01 
5.456736148841e+01 3.019310558371e-01 
5.460869832099e+01 3.018220414526e-01 
5.464962178599e+01 3.017143018718e-01 
5.469013601585e+01 3.016078201455e-01 
5.473024510163e+01 3.015025795953e-01 
5.476995309773e+01 3.013985637974e-01 
5.480926401467e+01 3.012957565976e-01 
5.484818182384e+01 3.011941420941e-01 
5.488671045437e+01 3.010937046425e-01 
5.492485379792e+01 3.009944288389e-01 
5.496261570951e+01 3.008962995143e-01 
5.500000000000e+01 3.007993016700e-01 
