VARIABLES = "X","Y","Z",VELOCITY1_X,VELOCITY1_Y,VELOCITY1_Z
ZONE T="0.000000000000e+00s", 
7.490000000000e+02 0.000000000000e+00 5.000000000000e-01 0.000000000000e+00 0.000000000000e+00 0.000000000000e+00
7.500000000000e+02 0.000000000000e+00 5.000000000000e-01 0.000000000000e+00 0.000000000000e+00 0.000000000000e+00
7.490000000000e+02 0.000000000000e+00 1.500000000000e+00 0.000000000000e+00 0.000000000000e+00 0.000000000000e+00
7.500000000000e+02 0.000000000000e+00 1.500000000000e+00 0.000000000000e+00 0.000000000000e+00 0.000000000000e+00
7.490000000000e+02 0.000000000000e+00 2.500000000000e+00 0.000000000000e+00 0.000000000000e+00 0.000000000000e+00
7.500000000000e+02 0.000000000000e+00 2.500000000000e+00 0.000000000000e+00 0.000000000000e+00 0.000000000000e+00
7.490000000000e+02 0.000000000000e+00 3.500000000000e+00 0.000000000000e+00 0.000000000000e+00 0.000000000000e+00
7.500000000000e+02 0.000000000000e+00 3.500000000000e+00 0.000000000000e+00 0.000000000000e+00 0.000000000000e+00
7.490000000000e+02 0.000000000000e+00 4.500000000000e+00 0.000000000000e+00 0.000000000000e+00 0.000000000000e+00
7.500000000000e+02 0.000000000000e+00 4.500000000000e+00 0.000000000000e+00 0.000000000000e+00 0.000000000000e+00
7.490000000000e+02 0.000000000000e+00 5.500000000000e+00 0.000000000000e+00 0.000000000000e+00 0.000000000000e+00
7.500000000000e+02 0.000000000000e+00 5.500000000000e+00 0.000000000000e+00 0.000000000000e+00 0.000000000000e+00
7.490000000000e+02 0.000000000000e+00 6.500000000000e+00 0.000000000000e+00 0.000000000000e+00 0.000000000000e+00
7.500000000000e+02 0.000000000000e+00 6.500000000000e+00 0.000000000000e+00 0.000000000000e+00 0.000000000000e+00
7.490000000000e+02 0.000000000000e+00 7.500000000000e+00 0.000000000000e+00 0.000000000000e+00 0.000000000000e+00
7.500000000000e+02 0.000000000000e+00 7.500000000000e+00 0.000000000000e+00 0.000000000000e+00 0.000000000000e+00
7.490000000000e+02 0.000000000000e+00 8.500000000000e+00 0.000000000000e+00 0.000000000000e+00 0.000000000000e+00
7.500000000000e+02 0.000000000000e+00 8.500000000000e+00 0.000000000000e+00 0.000000000000e+00 0.000000000000e+00
7.490000000000e+02 0.000000000000e+00 9.500000000000e+00 0.000000000000e+00 0.000000000000e+00 0.000000000000e+00
7.500000000000e+02 0.000000000000e+00 9.500000000000e+00 0.000000000000e+00 0.000000000000e+00 0.000000000000e+00
7.490000000000e+02 0.000000000000e+00 1.050000000000e+01 0.000000000000e+00 0.000000000000e+00 0.000000000000e+00
7.500000000000e+02 0.000000000000e+00 1.050000000000e+01 0.000000000000e+00 0.000000000000e+00 0.000000000000e+00
7.490000000000e+02 0.000000000000e+00 1.150000000000e+01 0.000000000000e+00 0.000000000000e+00 0.000000000000e+00
7.500000000000e+02 0.000000000000e+00 1.150000000000e+01 0.000000000000e+00 0.000000000000e+00 0.000000000000e+00
7.490000000000e+02 0.000000000000e+00 1.250000000000e+01 0.000000000000e+00 0.000000000000e+00 0.000000000000e+00
7.500000000000e+02 0.000000000000e+00 1.250000000000e+01 0.000000000000e+00 0.000000000000e+00 0.000000000000e+00
7.490000000000e+02 0.000000000000e+00 1.350000000000e+01 0.000000000000e+00 0.000000000000e+00 0.000000000000e+00
7.500000000000e+02 0.000000000000e+00 1.350000000000e+01 0.000000000000e+00 0.000000000000e+00 0.000000000000e+00
7.490000000000e+02 0.000000000000e+00 1.450000000000e+01 0.000000000000e+00 0.000000000000e+00 0.000000000000e+00
7.500000000000e+02 0.000000000000e+00 1.450000000000e+01 0.000000000000e+00 0.000000000000e+00 0.000000000000e+00
7.490000000000e+02 0.000000000000e+00 1.550000000000e+01 0.000000000000e+00 0.000000000000e+00 0.000000000000e+00
7.500000000000e+02 0.000000000000e+00 1.550000000000e+01 0.000000000000e+00 0.000000000000e+00 0.000000000000e+00
7.490000000000e+02 0.000000000000e+00 1.650000000000e+01 0.000000000000e+00 0.000000000000e+00 0.000000000000e+00
7.500000000000e+02 0.000000000000e+00 1.650000000000e+01 0.000000000000e+00 0.000000000000e+00 0.000000000000e+00
7.490000000000e+02 0.000000000000e+00 1.750000000000e+01 0.000000000000e+00 0.000000000000e+00 0.000000000000e+00
7.500000000000e+02 0.000000000000e+00 1.750000000000e+01 0.000000000000e+00 0.000000000000e+00 0.000000000000e+00
7.490000000000e+02 0.000000000000e+00 1.850000000000e+01 0.000000000000e+00 0.000000000000e+00 0.000000000000e+00
7.500000000000e+02 0.000000000000e+00 1.850000000000e+01 0.000000000000e+00 0.000000000000e+00 0.000000000000e+00
7.490000000000e+02 0.000000000000e+00 1.950000000000e+01 0.000000000000e+00 0.000000000000e+00 0.000000000000e+00
7.500000000000e+02 0.000000000000e+00 1.950000000000e+01 0.000000000000e+00 0.000000000000e+00 0.000000000000e+00
7.490000000000e+02 0.000000000000e+00 2.050000000000e+01 0.000000000000e+00 0.000000000000e+00 0.000000000000e+00
7.500000000000e+02 0.000000000000e+00 2.050000000000e+01 0.000000000000e+00 0.000000000000e+00 0.000000000000e+00
7.490000000000e+02 0.000000000000e+00 2.150000000000e+01 0.000000000000e+00 0.000000000000e+00 0.000000000000e+00
7.500000000000e+02 0.000000000000e+00 2.150000000000e+01 0.000000000000e+00 0.000000000000e+00 0.000000000000e+00
7.490000000000e+02 0.000000000000e+00 2.250000000000e+01 0.000000000000e+00 0.000000000000e+00 0.000000000000e+00
7.500000000000e+02 0.000000000000e+00 2.250000000000e+01 0.000000000000e+00 0.000000000000e+00 0.000000000000e+00
7.490000000000e+02 0.000000000000e+00 2.350000000000e+01 0.000000000000e+00 0.000000000000e+00 0.000000000000e+00
7.500000000000e+02 0.000000000000e+00 2.350000000000e+01 0.000000000000e+00 0.000000000000e+00 0.000000000000e+00
7.490000000000e+02 0.000000000000e+00 2.450000000000e+01 0.000000000000e+00 0.000000000000e+00 0.000000000000e+00
7.500000000000e+02 0.000000000000e+00 2.450000000000e+01 0.000000000000e+00 0.000000000000e+00 0.000000000000e+00
7.490000000000e+02 0.000000000000e+00 2.550000000000e+01 0.000000000000e+00 0.000000000000e+00 0.000000000000e+00
7.500000000000e+02 0.000000000000e+00 2.550000000000e+01 0.000000000000e+00 0.000000000000e+00 0.000000000000e+00
7.490000000000e+02 0.000000000000e+00 2.650000000000e+01 0.000000000000e+00 0.000000000000e+00 0.000000000000e+00
7.500000000000e+02 0.000000000000e+00 2.650000000000e+01 0.000000000000e+00 0.000000000000e+00 0.000000000000e+00
7.490000000000e+02 0.000000000000e+00 2.750000000000e+01 0.000000000000e+00 0.000000000000e+00 0.000000000000e+00
7.500000000000e+02 0.000000000000e+00 2.750000000000e+01 0.000000000000e+00 0.000000000000e+00 0.000000000000e+00
7.490000000000e+02 0.000000000000e+00 2.850000000000e+01 0.000000000000e+00 0.000000000000e+00 0.000000000000e+00
7.500000000000e+02 0.000000000000e+00 2.850000000000e+01 0.000000000000e+00 0.000000000000e+00 0.000000000000e+00
7.490000000000e+02 0.000000000000e+00 2.950000000000e+01 0.000000000000e+00 0.000000000000e+00 0.000000000000e+00
7.500000000000e+02 0.000000000000e+00 2.950000000000e+01 0.000000000000e+00 0.000000000000e+00 0.000000000000e+00
VARIABLES = "X","Y","Z",VELOCITY1_X,VELOCITY1_Y,VELOCITY1_Z
ZONE T="1.797693134862e+308s", 
7.490000000000e+02 0.000000000000e+00 5.000000000000e-01 9.173182996733e-09 -5.628380355671e-12 0.000000000000e+00
7.500000000000e+02 0.000000000000e+00 5.000000000000e-01 9.184429439821e-09 -5.622612783615e-12 0.000000000000e+00
7.490000000000e+02 0.000000000000e+00 1.500000000000e+00 5.618555053127e-08 -4.573096242955e-11 0.000000000000e+00
7.500000000000e+02 0.000000000000e+00 1.500000000000e+00 5.625443499909e-08 -4.568418185402e-11 0.000000000000e+00
7.490000000000e+02 0.000000000000e+00 2.500000000000e+00 2.602686354107e-09 -8.180410104601e-11 0.000000000000e+00
7.500000000000e+02 0.000000000000e+00 2.500000000000e+00 2.605877388922e-09 -8.172068351654e-11 0.000000000000e+00
7.490000000000e+02 0.000000000000e+00 3.500000000000e+00 2.396224506115e-09 -8.487217156256e-11 0.000000000000e+00
7.500000000000e+02 0.000000000000e+00 3.500000000000e+00 2.399163096326e-09 -8.478563579660e-11 0.000000000000e+00
7.490000000000e+02 0.000000000000e+00 4.500000000000e+00 3.986828858450e-07 -3.310851198773e-10 0.000000000000e+00
7.500000000000e+02 0.000000000000e+00 4.500000000000e+00 3.991719222009e-07 -3.307490642292e-10 0.000000000000e+00
7.490000000000e+02 0.000000000000e+00 5.500000000000e+00 1.219351665710e-08 -5.833279013370e-10 0.000000000000e+00
7.500000000000e+02 0.000000000000e+00 5.500000000000e+00 1.220847426067e-08 -5.827360177209e-10 0.000000000000e+00
7.490000000000e+02 0.000000000000e+00 6.500000000000e+00 1.213627184981e-08 -5.982693818143e-10 0.000000000000e+00
7.500000000000e+02 0.000000000000e+00 6.500000000000e+00 1.215116450664e-08 -5.976623814981e-10 0.000000000000e+00
7.490000000000e+02 0.000000000000e+00 7.500000000000e+00 9.107805812831e-09 -6.113204603472e-10 0.000000000000e+00
7.500000000000e+02 0.000000000000e+00 7.500000000000e+00 9.118986409935e-09 -6.107003366108e-10 0.000000000000e+00
7.490000000000e+02 0.000000000000e+00 8.500000000000e+00 6.430032417315e-07 -1.012118347397e-09 0.000000000000e+00
7.500000000000e+02 0.000000000000e+00 8.500000000000e+00 6.437929297150e-07 -1.011097985802e-09 0.000000000000e+00
7.490000000000e+02 0.000000000000e+00 9.500000000000e+00 1.820660691279e-08 -1.418532205205e-09 0.000000000000e+00
7.500000000000e+02 0.000000000000e+00 9.500000000000e+00 1.822896855576e-08 -1.417105916600e-09 0.000000000000e+00
7.490000000000e+02 0.000000000000e+00 1.050000000000e+01 3.706753694595e-08 -1.452525240987e-09 0.000000000000e+00
7.500000000000e+02 0.000000000000e+00 1.050000000000e+01 3.711308826660e-08 -1.451065241153e-09 0.000000000000e+00
7.490000000000e+02 0.000000000000e+00 1.150000000000e+01 1.262858598868e-09 -1.476105618108e-09 0.000000000000e+00
7.500000000000e+02 0.000000000000e+00 1.150000000000e+01 1.264412370396e-09 -1.474622327498e-09 0.000000000000e+00
7.490000000000e+02 0.000000000000e+00 1.250000000000e+01 7.306102187015e-08 -1.522209444495e-09 0.000000000000e+00
7.500000000000e+02 0.000000000000e+00 1.250000000000e+01 7.315159057136e-08 -1.520685375285e-09 0.000000000000e+00
7.490000000000e+02 0.000000000000e+00 1.350000000000e+01 8.243141421390e-07 -2.078937049228e-09 0.000000000000e+00
7.500000000000e+02 0.000000000000e+00 1.350000000000e+01 8.253361241429e-07 -2.076921928660e-09 0.000000000000e+00
7.490000000000e+02 0.000000000000e+00 1.450000000000e+01 3.261616245503e-09 -2.592399884808e-09 0.000000000000e+00
7.500000000000e+02 0.000000000000e+00 1.450000000000e+01 3.265662518153e-09 -2.589933107153e-09 0.000000000000e+00
7.490000000000e+02 0.000000000000e+00 1.550000000000e+01 1.113746209353e-09 -2.595130256344e-09 0.000000000000e+00
7.500000000000e+02 0.000000000000e+00 1.550000000000e+01 1.115137006787e-09 -2.592661247654e-09 0.000000000000e+00
7.490000000000e+02 0.000000000000e+00 1.650000000000e+01 3.791294513883e-08 -2.619853359006e-09 0.000000000000e+00
7.500000000000e+02 0.000000000000e+00 1.650000000000e+01 3.796095300617e-08 -2.617368954810e-09 0.000000000000e+00
7.490000000000e+02 0.000000000000e+00 1.750000000000e+01 1.961512094261e-08 -2.656314597960e-09 0.000000000000e+00
7.500000000000e+02 0.000000000000e+00 1.750000000000e+01 1.963997150077e-08 -2.653807637259e-09 0.000000000000e+00
7.490000000000e+02 0.000000000000e+00 1.850000000000e+01 1.747612085510e-08 -2.679843872986e-09 0.000000000000e+00
7.500000000000e+02 0.000000000000e+00 1.850000000000e+01 1.749828156602e-08 -2.677322602306e-09 0.000000000000e+00
7.490000000000e+02 0.000000000000e+00 1.950000000000e+01 2.641806497465e-07 -2.858680428857e-09 0.000000000000e+00
7.500000000000e+02 0.000000000000e+00 1.950000000000e+01 2.645159476897e-07 -2.856053176440e-09 0.000000000000e+00
7.490000000000e+02 0.000000000000e+00 2.050000000000e+01 6.690653620422e-10 -3.026868314454e-09 0.000000000000e+00
7.500000000000e+02 0.000000000000e+00 2.050000000000e+01 6.699173179631e-10 -3.024141394841e-09 0.000000000000e+00
7.490000000000e+02 0.000000000000e+00 2.150000000000e+01 4.773206026527e-08 -3.058466634117e-09 0.000000000000e+00
7.500000000000e+02 0.000000000000e+00 2.150000000000e+01 4.779436813774e-08 -3.055731585772e-09 0.000000000000e+00
7.490000000000e+02 0.000000000000e+00 2.250000000000e+01 1.203310697213e-07 -3.168226441965e-09 0.000000000000e+00
7.500000000000e+02 0.000000000000e+00 2.250000000000e+01 1.204882027369e-07 -3.165463698842e-09 0.000000000000e+00
7.490000000000e+02 0.000000000000e+00 2.350000000000e+01 1.524295073847e-10 -3.246928002278e-09 0.000000000000e+00
7.500000000000e+02 0.000000000000e+00 2.350000000000e+01 1.526313545339e-10 -3.244145546309e-09 0.000000000000e+00
7.490000000000e+02 0.000000000000e+00 2.450000000000e+01 2.183542802170e-08 -3.263018538866e-09 0.000000000000e+00
7.500000000000e+02 0.000000000000e+00 2.450000000000e+01 2.186741464997e-08 -3.260252655501e-09 0.000000000000e+00
7.490000000000e+02 0.000000000000e+00 2.550000000000e+01 2.754898931706e-09 -3.281027692627e-09 0.000000000000e+00
7.500000000000e+02 0.000000000000e+00 2.550000000000e+01 2.758939932747e-09 -3.278280706956e-09 0.000000000000e+00
7.490000000000e+02 0.000000000000e+00 2.650000000000e+01 1.142081169038e-06 -4.124248315679e-09 0.000000000000e+00
7.500000000000e+02 0.000000000000e+00 2.650000000000e+01 1.143765161514e-06 -4.122428975789e-09 0.000000000000e+00
7.490000000000e+02 0.000000000000e+00 2.750000000000e+01 4.800990696313e-07 -5.319136514746e-09 0.000000000000e+00
7.500000000000e+02 0.000000000000e+00 2.750000000000e+01 4.808069745076e-07 -5.318640632732e-09 0.000000000000e+00
7.490000000000e+02 0.000000000000e+00 2.850000000000e+01 1.433935878847e-08 -5.683338930391e-09 0.000000000000e+00
7.500000000000e+02 0.000000000000e+00 2.850000000000e+01 1.436050238621e-08 -5.683243798054e-09 0.000000000000e+00
7.490000000000e+02 0.000000000000e+00 2.950000000000e+01 5.139096445922e-08 -5.731754750337e-09 0.000000000000e+00
7.500000000000e+02 0.000000000000e+00 2.950000000000e+01 5.146674587126e-08 -5.731713243761e-09 0.000000000000e+00
