 TITLE = "Profiles along polylines"
 VARIABLES = "DIST" "HEAD" "VELOCITY_X1" "VELOCITY_Y1" "VELOCITY_Z1" 
 ZONE T="TIME=0.000000000000e+00"
0.000000000000e+00 3.000000000000e+01 0.000000000000e+00 0.000000000000e+00 0.000000000000e+00 
1.000000000000e+00 3.000000000000e+01 0.000000000000e+00 0.000000000000e+00 0.000000000000e+00 
2.000000000000e+00 3.000000000000e+01 0.000000000000e+00 0.000000000000e+00 0.000000000000e+00 
3.000000000000e+00 3.000000000000e+01 0.000000000000e+00 0.000000000000e+00 0.000000000000e+00 
4.000000000000e+00 3.000000000000e+01 0.000000000000e+00 0.000000000000e+00 0.000000000000e+00 
5.000000000000e+00 3.000000000000e+01 0.000000000000e+00 0.000000000000e+00 0.000000000000e+00 
6.000000000000e+00 3.000000000000e+01 0.000000000000e+00 0.000000000000e+00 0.000000000000e+00 
7.000000000000e+00 3.000000000000e+01 0.000000000000e+00 0.000000000000e+00 0.000000000000e+00 
8.000000000000e+00 3.000000000000e+01 0.000000000000e+00 0.000000000000e+00 0.000000000000e+00 
9.000000000000e+00 3.000000000000e+01 0.000000000000e+00 0.000000000000e+00 0.000000000000e+00 
1.000000000000e+01 3.000000000000e+01 0.000000000000e+00 0.000000000000e+00 0.000000000000e+00 
1.100000000000e+01 3.000000000000e+01 0.000000000000e+00 0.000000000000e+00 0.000000000000e+00 
1.200000000000e+01 3.000000000000e+01 0.000000000000e+00 0.000000000000e+00 0.000000000000e+00 
1.300000000000e+01 3.000000000000e+01 0.000000000000e+00 0.000000000000e+00 0.000000000000e+00 
1.400000000000e+01 3.000000000000e+01 0.000000000000e+00 0.000000000000e+00 0.000000000000e+00 
1.500000000000e+01 3.000000000000e+01 0.000000000000e+00 0.000000000000e+00 0.000000000000e+00 
1.600000000000e+01 3.000000000000e+01 0.000000000000e+00 0.000000000000e+00 0.000000000000e+00 
1.700000000000e+01 3.000000000000e+01 0.000000000000e+00 0.000000000000e+00 0.000000000000e+00 
1.800000000000e+01 3.000000000000e+01 0.000000000000e+00 0.000000000000e+00 0.000000000000e+00 
1.900000000000e+01 3.000000000000e+01 0.000000000000e+00 0.000000000000e+00 0.000000000000e+00 
2.000000000000e+01 3.000000000000e+01 0.000000000000e+00 0.000000000000e+00 0.000000000000e+00 
2.100000000000e+01 3.000000000000e+01 0.000000000000e+00 0.000000000000e+00 0.000000000000e+00 
2.200000000000e+01 3.000000000000e+01 0.000000000000e+00 0.000000000000e+00 0.000000000000e+00 
2.300000000000e+01 3.000000000000e+01 0.000000000000e+00 0.000000000000e+00 0.000000000000e+00 
2.400000000000e+01 3.000000000000e+01 0.000000000000e+00 0.000000000000e+00 0.000000000000e+00 
2.500000000000e+01 3.000000000000e+01 0.000000000000e+00 0.000000000000e+00 0.000000000000e+00 
2.600000000000e+01 3.000000000000e+01 0.000000000000e+00 0.000000000000e+00 0.000000000000e+00 
2.700000000000e+01 3.000000000000e+01 0.000000000000e+00 0.000000000000e+00 0.000000000000e+00 
2.800000000000e+01 3.000000000000e+01 0.000000000000e+00 0.000000000000e+00 0.000000000000e+00 
2.900000000000e+01 3.000000000000e+01 0.000000000000e+00 0.000000000000e+00 0.000000000000e+00 
3.000000000000e+01 3.000000000000e+01 0.000000000000e+00 0.000000000000e+00 0.000000000000e+00 
 TITLE = "Profiles along polylines"
 VARIABLES = "DIST" "HEAD" "VELOCITY_X1" "VELOCITY_Y1" "VELOCITY_Z1" 
 ZONE T="TIME=1.797693134862e+308"
0.000000000000e+00 3.000000000000e+01 1.103434149144e-08 -4.537424101889e-22 0.000000000000e+00 
1.000000000000e+00 3.000000000000e+01 3.930985872545e-08 -2.375658932957e-20 0.000000000000e+00 
2.000000000000e+00 3.000000000000e+01 3.535822566999e-08 -2.091756538846e-20 0.000000000000e+00 
3.000000000000e+00 3.000000000000e+01 3.007153061010e-09 2.543354040474e-21 0.000000000000e+00 
4.000000000000e+00 3.000000000000e+01 2.413175500188e-07 -1.388852638987e-19 0.000000000000e+00 
5.000000000000e+00 3.000000000000e+01 2.472135420212e-07 -2.936194963794e-19 0.000000000000e+00 
6.000000000000e+00 3.000000000000e+01 1.464272906885e-08 -5.834656961996e-21 0.000000000000e+00 
7.000000000000e+00 3.000000000000e+01 1.278913639695e-08 -9.393010741174e-21 0.000000000000e+00 
8.000000000000e+00 3.000000000000e+01 3.927141724884e-07 -1.066995300639e-18 0.000000000000e+00 
9.000000000000e+00 3.000000000000e+01 3.981973299405e-07 9.969979085502e-19 0.000000000000e+00 
1.000000000000e+01 3.000000000000e+01 3.330265152838e-08 -2.121242812740e-20 0.000000000000e+00 
1.100000000000e+01 3.000000000000e+01 2.309934144711e-08 -3.569942817355e-20 0.000000000000e+00 
1.200000000000e+01 3.000000000000e+01 4.508296701839e-08 2.592097568374e-20 0.000000000000e+00 
1.300000000000e+01 3.000000000000e+01 5.443806831643e-07 5.178784092918e-19 0.000000000000e+00 
1.400000000000e+01 3.000000000000e+01 5.020455996633e-07 1.564467830207e-19 0.000000000000e+00 
1.500000000000e+01 3.000000000000e+01 2.668336456513e-09 7.393694456747e-21 0.000000000000e+00 
1.600000000000e+01 3.000000000000e+01 2.412767972210e-08 -2.617797048652e-20 0.000000000000e+00 
1.700000000000e+01 3.000000000000e+01 3.558014552338e-08 3.838105773881e-21 0.000000000000e+00 
1.800000000000e+01 3.000000000000e+01 2.295968329088e-08 2.201601898423e-20 0.000000000000e+00 
1.900000000000e+01 3.000000000000e+01 1.745032479793e-07 -1.206643606089e-19 0.000000000000e+00 
2.000000000000e+01 3.000000000000e+01 1.641018959978e-07 -2.201377240935e-19 0.000000000000e+00 
2.100000000000e+01 3.000000000000e+01 3.090566244777e-08 4.344279436470e-20 0.000000000000e+00 
2.200000000000e+01 3.000000000000e+01 1.073566501830e-07 1.614198337327e-19 0.000000000000e+00 
2.300000000000e+01 3.000000000000e+01 7.697872824762e-08 1.364135322721e-19 0.000000000000e+00 
2.400000000000e+01 3.000000000000e+01 1.635506483553e-08 -1.240767940091e-21 0.000000000000e+00 
2.500000000000e+01 3.000000000000e+01 1.831199613353e-08 -2.154528119585e-21 0.000000000000e+00 
2.600000000000e+01 3.000000000000e+01 8.617998886731e-07 -8.446611849663e-19 0.000000000000e+00 
2.700000000000e+01 3.000000000000e+01 1.221557433612e-06 -1.294369232071e-18 0.000000000000e+00 
2.800000000000e+01 3.000000000000e+01 3.730901108908e-07 -4.596230915420e-19 0.000000000000e+00 
2.900000000000e+01 3.000000000000e+01 5.404555412528e-08 1.523213031455e-20 0.000000000000e+00 
3.000000000000e+01 3.000000000000e+01 8.872844683609e-08 8.078452657346e-21 0.000000000000e+00 
