 TITLE = "Profiles along polylines"
 VARIABLES = "DIST" "HEAD" "VELOCITY_X1" "VELOCITY_Y1" "VELOCITY_Z1" 
 ZONE T="TIME=0.000000000000e+00"
0.000000000000e+00 3.000000000000e+01 0.000000000000e+00 0.000000000000e+00 0.000000000000e+00 
1.000000000000e+00 3.000000000000e+01 0.000000000000e+00 0.000000000000e+00 0.000000000000e+00 
2.000000000000e+00 3.000000000000e+01 0.000000000000e+00 0.000000000000e+00 0.000000000000e+00 
3.000000000000e+00 3.000000000000e+01 0.000000000000e+00 0.000000000000e+00 0.000000000000e+00 
4.000000000000e+00 3.000000000000e+01 0.000000000000e+00 0.000000000000e+00 0.000000000000e+00 
5.000000000000e+00 3.000000000000e+01 0.000000000000e+00 0.000000000000e+00 0.000000000000e+00 
6.000000000000e+00 3.000000000000e+01 0.000000000000e+00 0.000000000000e+00 0.000000000000e+00 
7.000000000000e+00 3.000000000000e+01 0.000000000000e+00 0.000000000000e+00 0.000000000000e+00 
8.000000000000e+00 3.000000000000e+01 0.000000000000e+00 0.000000000000e+00 0.000000000000e+00 
9.000000000000e+00 3.000000000000e+01 0.000000000000e+00 0.000000000000e+00 0.000000000000e+00 
1.000000000000e+01 3.000000000000e+01 0.000000000000e+00 0.000000000000e+00 0.000000000000e+00 
1.100000000000e+01 3.000000000000e+01 0.000000000000e+00 0.000000000000e+00 0.000000000000e+00 
1.200000000000e+01 3.000000000000e+01 0.000000000000e+00 0.000000000000e+00 0.000000000000e+00 
1.300000000000e+01 3.000000000000e+01 0.000000000000e+00 0.000000000000e+00 0.000000000000e+00 
1.400000000000e+01 3.000000000000e+01 0.000000000000e+00 0.000000000000e+00 0.000000000000e+00 
1.500000000000e+01 3.000000000000e+01 0.000000000000e+00 0.000000000000e+00 0.000000000000e+00 
1.600000000000e+01 3.000000000000e+01 0.000000000000e+00 0.000000000000e+00 0.000000000000e+00 
1.700000000000e+01 3.000000000000e+01 0.000000000000e+00 0.000000000000e+00 0.000000000000e+00 
1.800000000000e+01 3.000000000000e+01 0.000000000000e+00 0.000000000000e+00 0.000000000000e+00 
1.900000000000e+01 3.000000000000e+01 0.000000000000e+00 0.000000000000e+00 0.000000000000e+00 
2.000000000000e+01 3.000000000000e+01 0.000000000000e+00 0.000000000000e+00 0.000000000000e+00 
2.100000000000e+01 3.000000000000e+01 0.000000000000e+00 0.000000000000e+00 0.000000000000e+00 
2.200000000000e+01 3.000000000000e+01 0.000000000000e+00 0.000000000000e+00 0.000000000000e+00 
2.300000000000e+01 3.000000000000e+01 0.000000000000e+00 0.000000000000e+00 0.000000000000e+00 
2.400000000000e+01 3.000000000000e+01 0.000000000000e+00 0.000000000000e+00 0.000000000000e+00 
2.500000000000e+01 3.000000000000e+01 0.000000000000e+00 0.000000000000e+00 0.000000000000e+00 
2.600000000000e+01 3.000000000000e+01 0.000000000000e+00 0.000000000000e+00 0.000000000000e+00 
2.700000000000e+01 3.000000000000e+01 0.000000000000e+00 0.000000000000e+00 0.000000000000e+00 
2.800000000000e+01 3.000000000000e+01 0.000000000000e+00 0.000000000000e+00 0.000000000000e+00 
2.900000000000e+01 3.000000000000e+01 0.000000000000e+00 0.000000000000e+00 0.000000000000e+00 
3.000000000000e+01 3.000000000000e+01 0.000000000000e+00 0.000000000000e+00 0.000000000000e+00 
 TITLE = "Profiles along polylines"
 VARIABLES = "DIST" "HEAD" "VELOCITY_X1" "VELOCITY_Y1" "VELOCITY_Z1" 
 ZONE T="TIME=1.797693134862e+308"
0.000000000000e+00 3.009723998519e+01 1.063734451556e-08 -3.628035432364e-12 0.000000000000e+00 
1.000000000000e+00 3.009724030894e+01 3.789549481789e-08 -1.655354664032e-11 0.000000000000e+00 
2.000000000000e+00 3.009724073843e+01 3.408596750239e-08 -4.110697765724e-11 0.000000000000e+00 
3.000000000000e+00 3.009725732441e+01 2.898707983353e-09 -5.372513729270e-11 0.000000000000e+00 
4.000000000000e+00 3.009727601663e+01 2.325931977248e-07 -1.342972853207e-10 0.000000000000e+00 
5.000000000000e+00 3.009727645580e+01 2.382754970484e-07 -2.954186037712e-10 0.000000000000e+00 
6.000000000000e+00 3.009730176390e+01 1.411149251110e-08 -3.817974477176e-10 0.000000000000e+00 
7.000000000000e+00 3.009732784553e+01 1.232350435090e-08 -3.908727641114e-10 0.000000000000e+00 
8.000000000000e+00 3.009736336301e+01 3.783473495038e-07 -5.255544173881e-10 0.000000000000e+00 
9.000000000000e+00 3.009736419834e+01 3.836282409135e-07 -7.882920802906e-10 0.000000000000e+00 
1.000000000000e+01 3.009740559873e+01 3.207719111553e-08 -9.316845922746e-10 0.000000000000e+00 
1.100000000000e+01 3.009742642546e+01 2.224689721152e-08 -9.504981449277e-10 0.000000000000e+00 
1.200000000000e+01 3.009804783966e+01 4.327803689707e-08 -9.740200111764e-10 0.000000000000e+00 
1.300000000000e+01 3.009805894679e+01 5.225553440403e-07 -1.180887692618e-09 0.000000000000e+00 
1.400000000000e+01 3.009806031131e+01 4.819136874742e-07 -1.548185502789e-09 0.000000000000e+00 
1.500000000000e+01 3.009849380721e+01 2.554478409758e-09 -1.725391838580e-09 0.000000000000e+00 
1.600000000000e+01 3.009976589758e+01 2.291999509810e-08 -1.735899661635e-09 0.000000000000e+00 
1.700000000000e+01 3.009980375458e+01 3.379141620690e-08 -1.759544598908e-09 0.000000000000e+00 
1.800000000000e+01 3.009987811415e+01 2.179533426450e-08 -1.782793339457e-09 0.000000000000e+00 
1.900000000000e+01 3.009996244652e+01 1.655656907874e-07 -1.861804725205e-09 0.000000000000e+00 
2.000000000000e+01 3.009996846109e+01 1.556905761677e-07 -1.997405348762e-09 0.000000000000e+00 
2.100000000000e+01 3.010250613320e+01 2.878571289886e-08 -2.077344862896e-09 0.000000000000e+00 
2.200000000000e+01 3.010254232436e+01 9.996571063493e-08 -2.140985534937e-09 0.000000000000e+00 
2.300000000000e+01 3.010255735984e+01 7.166990266225e-08 -2.225892951283e-09 0.000000000000e+00 
2.400000000000e+01 3.011483659840e+01 1.375189304114e-08 -2.272353040307e-09 0.000000000000e+00 
2.500000000000e+01 3.011492455223e+01 1.538458980635e-08 -2.295663874620e-09 0.000000000000e+00 
2.600000000000e+01 3.011562936058e+01 7.180929601566e-07 -2.894440461058e-09 0.000000000000e+00 
2.700000000000e+01 3.011563192696e+01 1.017508106494e-06 -4.311932767171e-09 0.000000000000e+00 
2.800000000000e+01 3.011564094705e+01 3.101359754401e-07 -5.396280693687e-09 0.000000000000e+00 
2.900000000000e+01 3.011597270059e+01 4.123001775660e-08 -5.683267112452e-09 0.000000000000e+00 
3.000000000000e+01 3.011606637225e+01 6.447112399250e-08 -5.716944743079e-09 0.000000000000e+00 
