 TITLE = "Profiles along polylines"
 VARIABLES = "DIST" "HEAD" "VELOCITY_X1" "VELOCITY_Y1" "VELOCITY_Z1" 
 ZONE T="TIME=0.000000000000e+00"
0.000000000000e+00 3.000000000000e+01 0.000000000000e+00 0.000000000000e+00 0.000000000000e+00 
1.000000000000e+00 3.000000000000e+01 0.000000000000e+00 0.000000000000e+00 0.000000000000e+00 
2.000000000000e+00 3.000000000000e+01 0.000000000000e+00 0.000000000000e+00 0.000000000000e+00 
3.000000000000e+00 3.000000000000e+01 0.000000000000e+00 0.000000000000e+00 0.000000000000e+00 
4.000000000000e+00 3.000000000000e+01 0.000000000000e+00 0.000000000000e+00 0.000000000000e+00 
5.000000000000e+00 3.000000000000e+01 0.000000000000e+00 0.000000000000e+00 0.000000000000e+00 
6.000000000000e+00 3.000000000000e+01 0.000000000000e+00 0.000000000000e+00 0.000000000000e+00 
7.000000000000e+00 3.000000000000e+01 0.000000000000e+00 0.000000000000e+00 0.000000000000e+00 
8.000000000000e+00 3.000000000000e+01 0.000000000000e+00 0.000000000000e+00 0.000000000000e+00 
9.000000000000e+00 3.000000000000e+01 0.000000000000e+00 0.000000000000e+00 0.000000000000e+00 
1.000000000000e+01 3.000000000000e+01 0.000000000000e+00 0.000000000000e+00 0.000000000000e+00 
1.100000000000e+01 3.000000000000e+01 0.000000000000e+00 0.000000000000e+00 0.000000000000e+00 
1.200000000000e+01 3.000000000000e+01 0.000000000000e+00 0.000000000000e+00 0.000000000000e+00 
1.300000000000e+01 3.000000000000e+01 0.000000000000e+00 0.000000000000e+00 0.000000000000e+00 
1.400000000000e+01 3.000000000000e+01 0.000000000000e+00 0.000000000000e+00 0.000000000000e+00 
1.500000000000e+01 3.000000000000e+01 0.000000000000e+00 0.000000000000e+00 0.000000000000e+00 
1.600000000000e+01 3.000000000000e+01 0.000000000000e+00 0.000000000000e+00 0.000000000000e+00 
1.700000000000e+01 3.000000000000e+01 0.000000000000e+00 0.000000000000e+00 0.000000000000e+00 
1.800000000000e+01 3.000000000000e+01 0.000000000000e+00 0.000000000000e+00 0.000000000000e+00 
1.900000000000e+01 3.000000000000e+01 0.000000000000e+00 0.000000000000e+00 0.000000000000e+00 
2.000000000000e+01 3.000000000000e+01 0.000000000000e+00 0.000000000000e+00 0.000000000000e+00 
2.100000000000e+01 3.000000000000e+01 0.000000000000e+00 0.000000000000e+00 0.000000000000e+00 
2.200000000000e+01 3.000000000000e+01 0.000000000000e+00 0.000000000000e+00 0.000000000000e+00 
2.300000000000e+01 3.000000000000e+01 0.000000000000e+00 0.000000000000e+00 0.000000000000e+00 
2.400000000000e+01 3.000000000000e+01 0.000000000000e+00 0.000000000000e+00 0.000000000000e+00 
2.500000000000e+01 3.000000000000e+01 0.000000000000e+00 0.000000000000e+00 0.000000000000e+00 
2.600000000000e+01 3.000000000000e+01 0.000000000000e+00 0.000000000000e+00 0.000000000000e+00 
2.700000000000e+01 3.000000000000e+01 0.000000000000e+00 0.000000000000e+00 0.000000000000e+00 
2.800000000000e+01 3.000000000000e+01 0.000000000000e+00 0.000000000000e+00 0.000000000000e+00 
2.900000000000e+01 3.000000000000e+01 0.000000000000e+00 0.000000000000e+00 0.000000000000e+00 
3.000000000000e+01 3.000000000000e+01 0.000000000000e+00 0.000000000000e+00 0.000000000000e+00 
 TITLE = "Profiles along polylines"
 VARIABLES = "DIST" "HEAD" "VELOCITY_X1" "VELOCITY_Y1" "VELOCITY_Z1" 
 ZONE T="TIME=1.797693134862e+308"
0.000000000000e+00 3.000984536879e+01 1.102994945324e-08 -4.387323224272e-13 0.000000000000e+00 
1.000000000000e+00 3.000984540794e+01 3.929421101453e-08 -2.001834863915e-12 0.000000000000e+00 
2.000000000000e+00 3.000984545988e+01 3.534414965740e-08 -4.970957868491e-12 0.000000000000e+00 
3.000000000000e+00 3.000984746554e+01 3.005951586789e-09 -6.496974976525e-12 0.000000000000e+00 
4.000000000000e+00 3.000984972607e+01 2.412207418861e-07 -1.628497823953e-11 0.000000000000e+00 
5.000000000000e+00 3.000984977936e+01 2.471143583896e-07 -3.586122550085e-11 0.000000000000e+00 
6.000000000000e+00 3.000985285222e+01 1.463682084194e-08 -4.635962635352e-11 0.000000000000e+00 
7.000000000000e+00 3.000985601934e+01 1.278394593590e-08 -4.746817070288e-11 0.000000000000e+00 
8.000000000000e+00 3.000986033300e+01 3.925535282331e-07 -6.402908490964e-11 0.000000000000e+00 
9.000000000000e+00 3.000986043496e+01 3.980344108047e-07 -9.634325889160e-11 0.000000000000e+00 
1.000000000000e+01 3.000986549946e+01 3.328889093139e-08 -1.139890075511e-10 0.000000000000e+00 
1.100000000000e+01 3.000986804791e+01 2.308974959068e-08 -1.163209132290e-10 0.000000000000e+00 
1.200000000000e+01 3.000994410491e+01 4.506151007064e-08 -1.194185443386e-10 0.000000000000e+00 
1.300000000000e+01 3.000994546895e+01 5.441209776201e-07 -1.474574990916e-10 0.000000000000e+00 
1.400000000000e+01 3.000994564136e+01 5.018059971129e-07 -1.972562471448e-10 0.000000000000e+00 
1.500000000000e+01 3.001000123682e+01 2.666885375891e-09 -2.213002479939e-10 0.000000000000e+00 
1.600000000000e+01 3.001016441120e+01 2.410993685287e-08 -2.232014060141e-10 0.000000000000e+00 
1.700000000000e+01 3.001016929033e+01 3.555376729601e-08 -2.275697096729e-10 0.000000000000e+00 
1.800000000000e+01 3.001017894059e+01 2.294236510151e-08 -2.318949889992e-10 0.000000000000e+00 
1.900000000000e+01 3.001018993472e+01 1.743689202769e-07 -2.468928787721e-10 0.000000000000e+00 
2.000000000000e+01 3.001019074482e+01 1.639753163358e-07 -2.726941481721e-10 0.000000000000e+00 
2.100000000000e+01 3.001054155624e+01 3.085702218222e-08 -2.898523765720e-10 0.000000000000e+00 
2.200000000000e+01 3.001054665201e+01 1.071860630348e-07 -3.107533718953e-10 0.000000000000e+00 
2.300000000000e+01 3.001054889670e+01 7.685548552758e-08 -3.387417264616e-10 0.000000000000e+00 
2.400000000000e+01 3.001245195338e+01 1.614888034195e-08 -3.659478050570e-10 0.000000000000e+00 
2.500000000000e+01 3.001246664582e+01 1.807689203035e-08 -3.988993774119e-10 0.000000000000e+00 
2.600000000000e+01 3.001259379704e+01 8.478485785910e-07 -1.314657773271e-09 0.000000000000e+00 
2.700000000000e+01 3.001259542859e+01 1.201382027262e-06 -3.487391906217e-09 0.000000000000e+00 
2.800000000000e+01 3.001260378023e+01 3.661928123955e-07 -5.152656741258e-09 0.000000000000e+00 
2.900000000000e+01 3.001292930235e+01 4.873204620492e-08 -5.606302728478e-09 0.000000000000e+00 
3.000000000000e+01 3.001302219063e+01 7.621216962408e-08 -5.669133571678e-09 0.000000000000e+00 
