VARIABLES = "X","Y","Z",VELOCITY1_X,VELOCITY1_Y,VELOCITY1_Z
ZONE T="0.000000000000e+00s", 
8.990000000000e+02 0.000000000000e+00 5.000000000000e-01 0.000000000000e+00 0.000000000000e+00 0.000000000000e+00
9.000000000000e+02 0.000000000000e+00 5.000000000000e-01 0.000000000000e+00 0.000000000000e+00 0.000000000000e+00
8.990000000000e+02 0.000000000000e+00 1.500000000000e+00 0.000000000000e+00 0.000000000000e+00 0.000000000000e+00
9.000000000000e+02 0.000000000000e+00 1.500000000000e+00 0.000000000000e+00 0.000000000000e+00 0.000000000000e+00
8.990000000000e+02 0.000000000000e+00 2.500000000000e+00 0.000000000000e+00 0.000000000000e+00 0.000000000000e+00
9.000000000000e+02 0.000000000000e+00 2.500000000000e+00 0.000000000000e+00 0.000000000000e+00 0.000000000000e+00
8.990000000000e+02 0.000000000000e+00 3.500000000000e+00 0.000000000000e+00 0.000000000000e+00 0.000000000000e+00
9.000000000000e+02 0.000000000000e+00 3.500000000000e+00 0.000000000000e+00 0.000000000000e+00 0.000000000000e+00
8.990000000000e+02 0.000000000000e+00 4.500000000000e+00 0.000000000000e+00 0.000000000000e+00 0.000000000000e+00
9.000000000000e+02 0.000000000000e+00 4.500000000000e+00 0.000000000000e+00 0.000000000000e+00 0.000000000000e+00
8.990000000000e+02 0.000000000000e+00 5.500000000000e+00 0.000000000000e+00 0.000000000000e+00 0.000000000000e+00
9.000000000000e+02 0.000000000000e+00 5.500000000000e+00 0.000000000000e+00 0.000000000000e+00 0.000000000000e+00
8.990000000000e+02 0.000000000000e+00 6.500000000000e+00 0.000000000000e+00 0.000000000000e+00 0.000000000000e+00
9.000000000000e+02 0.000000000000e+00 6.500000000000e+00 0.000000000000e+00 0.000000000000e+00 0.000000000000e+00
8.990000000000e+02 0.000000000000e+00 7.500000000000e+00 0.000000000000e+00 0.000000000000e+00 0.000000000000e+00
9.000000000000e+02 0.000000000000e+00 7.500000000000e+00 0.000000000000e+00 0.000000000000e+00 0.000000000000e+00
8.990000000000e+02 0.000000000000e+00 8.500000000000e+00 0.000000000000e+00 0.000000000000e+00 0.000000000000e+00
9.000000000000e+02 0.000000000000e+00 8.500000000000e+00 0.000000000000e+00 0.000000000000e+00 0.000000000000e+00
8.990000000000e+02 0.000000000000e+00 9.500000000000e+00 0.000000000000e+00 0.000000000000e+00 0.000000000000e+00
9.000000000000e+02 0.000000000000e+00 9.500000000000e+00 0.000000000000e+00 0.000000000000e+00 0.000000000000e+00
8.990000000000e+02 0.000000000000e+00 1.050000000000e+01 0.000000000000e+00 0.000000000000e+00 0.000000000000e+00
9.000000000000e+02 0.000000000000e+00 1.050000000000e+01 0.000000000000e+00 0.000000000000e+00 0.000000000000e+00
8.990000000000e+02 0.000000000000e+00 1.150000000000e+01 0.000000000000e+00 0.000000000000e+00 0.000000000000e+00
9.000000000000e+02 0.000000000000e+00 1.150000000000e+01 0.000000000000e+00 0.000000000000e+00 0.000000000000e+00
8.990000000000e+02 0.000000000000e+00 1.250000000000e+01 0.000000000000e+00 0.000000000000e+00 0.000000000000e+00
9.000000000000e+02 0.000000000000e+00 1.250000000000e+01 0.000000000000e+00 0.000000000000e+00 0.000000000000e+00
8.990000000000e+02 0.000000000000e+00 1.350000000000e+01 0.000000000000e+00 0.000000000000e+00 0.000000000000e+00
9.000000000000e+02 0.000000000000e+00 1.350000000000e+01 0.000000000000e+00 0.000000000000e+00 0.000000000000e+00
8.990000000000e+02 0.000000000000e+00 1.450000000000e+01 0.000000000000e+00 0.000000000000e+00 0.000000000000e+00
9.000000000000e+02 0.000000000000e+00 1.450000000000e+01 0.000000000000e+00 0.000000000000e+00 0.000000000000e+00
8.990000000000e+02 0.000000000000e+00 1.550000000000e+01 0.000000000000e+00 0.000000000000e+00 0.000000000000e+00
9.000000000000e+02 0.000000000000e+00 1.550000000000e+01 0.000000000000e+00 0.000000000000e+00 0.000000000000e+00
8.990000000000e+02 0.000000000000e+00 1.650000000000e+01 0.000000000000e+00 0.000000000000e+00 0.000000000000e+00
9.000000000000e+02 0.000000000000e+00 1.650000000000e+01 0.000000000000e+00 0.000000000000e+00 0.000000000000e+00
8.990000000000e+02 0.000000000000e+00 1.750000000000e+01 0.000000000000e+00 0.000000000000e+00 0.000000000000e+00
9.000000000000e+02 0.000000000000e+00 1.750000000000e+01 0.000000000000e+00 0.000000000000e+00 0.000000000000e+00
8.990000000000e+02 0.000000000000e+00 1.850000000000e+01 0.000000000000e+00 0.000000000000e+00 0.000000000000e+00
9.000000000000e+02 0.000000000000e+00 1.850000000000e+01 0.000000000000e+00 0.000000000000e+00 0.000000000000e+00
8.990000000000e+02 0.000000000000e+00 1.950000000000e+01 0.000000000000e+00 0.000000000000e+00 0.000000000000e+00
9.000000000000e+02 0.000000000000e+00 1.950000000000e+01 0.000000000000e+00 0.000000000000e+00 0.000000000000e+00
8.990000000000e+02 0.000000000000e+00 2.050000000000e+01 0.000000000000e+00 0.000000000000e+00 0.000000000000e+00
9.000000000000e+02 0.000000000000e+00 2.050000000000e+01 0.000000000000e+00 0.000000000000e+00 0.000000000000e+00
8.990000000000e+02 0.000000000000e+00 2.150000000000e+01 0.000000000000e+00 0.000000000000e+00 0.000000000000e+00
9.000000000000e+02 0.000000000000e+00 2.150000000000e+01 0.000000000000e+00 0.000000000000e+00 0.000000000000e+00
8.990000000000e+02 0.000000000000e+00 2.250000000000e+01 0.000000000000e+00 0.000000000000e+00 0.000000000000e+00
9.000000000000e+02 0.000000000000e+00 2.250000000000e+01 0.000000000000e+00 0.000000000000e+00 0.000000000000e+00
8.990000000000e+02 0.000000000000e+00 2.350000000000e+01 0.000000000000e+00 0.000000000000e+00 0.000000000000e+00
9.000000000000e+02 0.000000000000e+00 2.350000000000e+01 0.000000000000e+00 0.000000000000e+00 0.000000000000e+00
8.990000000000e+02 0.000000000000e+00 2.450000000000e+01 0.000000000000e+00 0.000000000000e+00 0.000000000000e+00
9.000000000000e+02 0.000000000000e+00 2.450000000000e+01 0.000000000000e+00 0.000000000000e+00 0.000000000000e+00
8.990000000000e+02 0.000000000000e+00 2.550000000000e+01 0.000000000000e+00 0.000000000000e+00 0.000000000000e+00
9.000000000000e+02 0.000000000000e+00 2.550000000000e+01 0.000000000000e+00 0.000000000000e+00 0.000000000000e+00
8.990000000000e+02 0.000000000000e+00 2.650000000000e+01 0.000000000000e+00 0.000000000000e+00 0.000000000000e+00
9.000000000000e+02 0.000000000000e+00 2.650000000000e+01 0.000000000000e+00 0.000000000000e+00 0.000000000000e+00
8.990000000000e+02 0.000000000000e+00 2.750000000000e+01 0.000000000000e+00 0.000000000000e+00 0.000000000000e+00
9.000000000000e+02 0.000000000000e+00 2.750000000000e+01 0.000000000000e+00 0.000000000000e+00 0.000000000000e+00
8.990000000000e+02 0.000000000000e+00 2.850000000000e+01 0.000000000000e+00 0.000000000000e+00 0.000000000000e+00
9.000000000000e+02 0.000000000000e+00 2.850000000000e+01 0.000000000000e+00 0.000000000000e+00 0.000000000000e+00
8.990000000000e+02 0.000000000000e+00 2.950000000000e+01 0.000000000000e+00 0.000000000000e+00 0.000000000000e+00
9.000000000000e+02 0.000000000000e+00 2.950000000000e+01 0.000000000000e+00 0.000000000000e+00 0.000000000000e+00
VARIABLES = "X","Y","Z",VELOCITY1_X,VELOCITY1_Y,VELOCITY1_Z
ZONE T="1.797693134862e+308s", 
8.990000000000e+02 0.000000000000e+00 5.000000000000e-01 1.063371943977e-08 -3.650217441856e-12 0.000000000000e+00
9.000000000000e+02 0.000000000000e+00 5.000000000000e-01 1.064097525054e-08 -3.625193761792e-12 0.000000000000e+00
8.990000000000e+02 0.000000000000e+00 1.500000000000e+00 6.513142148561e-08 -2.965923115334e-11 0.000000000000e+00
9.000000000000e+02 0.000000000000e+00 1.500000000000e+00 6.517586450765e-08 -2.945597601223e-11 0.000000000000e+00
8.990000000000e+02 0.000000000000e+00 2.500000000000e+00 3.017122558400e-09 -5.305688401973e-11 0.000000000000e+00
9.000000000000e+02 0.000000000000e+00 2.500000000000e+00 3.019181723064e-09 -5.269363462866e-11 0.000000000000e+00
8.990000000000e+02 0.000000000000e+00 3.500000000000e+00 2.778033626682e-09 -5.504940725010e-11 0.000000000000e+00
9.000000000000e+02 0.000000000000e+00 3.500000000000e+00 2.779932411609e-09 -5.467256927436e-11 0.000000000000e+00
8.990000000000e+02 0.000000000000e+00 4.500000000000e+00 4.622490383558e-07 -2.151784592997e-10 0.000000000000e+00
9.000000000000e+02 0.000000000000e+00 4.500000000000e+00 4.625654469925e-07 -2.137126784428e-10 0.000000000000e+00
8.990000000000e+02 0.000000000000e+00 5.500000000000e+00 1.413789836251e-08 -3.792475013959e-10 0.000000000000e+00
9.000000000000e+02 0.000000000000e+00 5.500000000000e+00 1.414757849064e-08 -3.766645807915e-10 0.000000000000e+00
8.990000000000e+02 0.000000000000e+00 6.500000000000e+00 1.407341757653e-08 -3.889848886151e-10 0.000000000000e+00
9.000000000000e+02 0.000000000000e+00 6.500000000000e+00 1.408307509900e-08 -3.863359487487e-10 0.000000000000e+00
8.990000000000e+02 0.000000000000e+00 7.500000000000e+00 1.056307687241e-08 -3.975075969670e-10 0.000000000000e+00
9.000000000000e+02 0.000000000000e+00 7.500000000000e+00 1.057034278010e-08 -3.948011857756e-10 0.000000000000e+00
8.990000000000e+02 0.000000000000e+00 8.500000000000e+00 7.458688486499e-07 -6.599577060559e-10 0.000000000000e+00
9.000000000000e+02 0.000000000000e+00 8.500000000000e+00 7.463833200423e-07 -6.554929384269e-10 0.000000000000e+00
8.990000000000e+02 0.000000000000e+00 9.500000000000e+00 2.111984136894e-08 -9.261223795981e-10 0.000000000000e+00
9.000000000000e+02 0.000000000000e+00 9.500000000000e+00 2.113441589887e-08 -9.198740803669e-10 0.000000000000e+00
8.990000000000e+02 0.000000000000e+00 1.050000000000e+01 4.300752327171e-08 -9.484552566077e-10 0.000000000000e+00
9.000000000000e+02 0.000000000000e+00 1.050000000000e+01 4.303730348874e-08 -9.420584400986e-10 0.000000000000e+00
8.990000000000e+02 0.000000000000e+00 1.150000000000e+01 1.465908770428e-09 -9.639722394808e-10 0.000000000000e+00
9.000000000000e+02 0.000000000000e+00 1.150000000000e+01 1.466931636931e-09 -9.574726315233e-10 0.000000000000e+00
8.990000000000e+02 0.000000000000e+00 1.250000000000e+01 8.505354055964e-08 -9.957567552963e-10 0.000000000000e+00
9.000000000000e+02 0.000000000000e+00 1.250000000000e+01 8.511570442727e-08 -9.890691120650e-10 0.000000000000e+00
8.990000000000e+02 0.000000000000e+00 1.350000000000e+01 9.596701357268e-07 -1.379883903037e-09 0.000000000000e+00
9.000000000000e+02 0.000000000000e+00 1.350000000000e+01 9.603721113691e-07 -1.370928772904e-09 0.000000000000e+00
8.990000000000e+02 0.000000000000e+00 1.450000000000e+01 3.798131567000e-09 -1.734216649145e-09 0.000000000000e+00
9.000000000000e+02 0.000000000000e+00 1.450000000000e+01 3.800921221539e-09 -1.723168754317e-09 0.000000000000e+00
8.990000000000e+02 0.000000000000e+00 1.550000000000e+01 1.300343804832e-09 -1.736160493281e-09 0.000000000000e+00
9.000000000000e+02 0.000000000000e+00 1.550000000000e+01 1.301339942775e-09 -1.725102113282e-09 0.000000000000e+00
8.990000000000e+02 0.000000000000e+00 1.650000000000e+01 4.451201847456e-08 -1.755310409532e-09 0.000000000000e+00
9.000000000000e+02 0.000000000000e+00 1.650000000000e+01 4.454909997493e-08 -1.744174353282e-09 0.000000000000e+00
8.990000000000e+02 0.000000000000e+00 1.750000000000e+01 2.303400497603e-08 -1.783620064765e-09 0.000000000000e+00
9.000000000000e+02 0.000000000000e+00 1.750000000000e+01 2.305325047100e-08 -1.772370155505e-09 0.000000000000e+00
8.990000000000e+02 0.000000000000e+00 1.850000000000e+01 2.052968023300e-08 -1.801973010437e-09 0.000000000000e+00
9.000000000000e+02 0.000000000000e+00 1.850000000000e+01 2.054692381805e-08 -1.790650588787e-09 0.000000000000e+00
8.990000000000e+02 0.000000000000e+00 1.950000000000e+01 3.104532743884e-07 -1.942187895120e-09 0.000000000000e+00
9.000000000000e+02 0.000000000000e+00 1.950000000000e+01 3.107154007530e-07 -1.930322798339e-09 0.000000000000e+00
8.990000000000e+02 0.000000000000e+00 2.050000000000e+01 7.873076899269e-10 -2.074106609109e-09 0.000000000000e+00
9.000000000000e+02 0.000000000000e+00 2.050000000000e+01 7.879855320150e-10 -2.061731834309e-09 0.000000000000e+00
8.990000000000e+02 0.000000000000e+00 2.150000000000e+01 5.674613820041e-08 -2.102562064977e-09 0.000000000000e+00
9.000000000000e+02 0.000000000000e+00 2.150000000000e+01 5.680218576100e-08 -2.090138045817e-09 0.000000000000e+00
8.990000000000e+02 0.000000000000e+00 2.250000000000e+01 1.430768264967e-07 -2.201581104330e-09 0.000000000000e+00
9.000000000000e+02 0.000000000000e+00 2.250000000000e+01 1.432184080015e-07 -2.188988195316e-09 0.000000000000e+00
8.990000000000e+02 0.000000000000e+00 2.350000000000e+01 1.823118573499e-10 -2.272633027947e-09 0.000000000000e+00
9.000000000000e+02 0.000000000000e+00 2.350000000000e+01 1.825056804440e-10 -2.259919770403e-09 0.000000000000e+00
8.990000000000e+02 0.000000000000e+00 2.450000000000e+01 2.728965461270e-08 -2.294540734688e-09 0.000000000000e+00
9.000000000000e+02 0.000000000000e+00 2.450000000000e+01 2.733330930744e-08 -2.281903220121e-09 0.000000000000e+00
8.990000000000e+02 0.000000000000e+00 2.550000000000e+01 3.445092326746e-09 -2.319111902443e-09 0.000000000000e+00
9.000000000000e+02 0.000000000000e+00 2.550000000000e+01 3.450627886545e-09 -2.306559758078e-09 0.000000000000e+00
8.990000000000e+02 0.000000000000e+00 2.650000000000e+01 1.431557728575e-06 -3.488247527674e-09 0.000000000000e+00
9.000000000000e+02 0.000000000000e+00 2.650000000000e+01 1.433897906609e-06 -3.479949378876e-09 0.000000000000e+00
8.990000000000e+02 0.000000000000e+00 2.750000000000e+01 6.017893685961e-07 -5.144987980625e-09 0.000000000000e+00
9.000000000000e+02 0.000000000000e+00 2.750000000000e+01 6.027731489473e-07 -5.142713255935e-09 0.000000000000e+00
8.990000000000e+02 0.000000000000e+00 2.850000000000e+01 1.797402311115e-08 -5.649975407930e-09 0.000000000000e+00
9.000000000000e+02 0.000000000000e+00 2.850000000000e+01 1.800340719777e-08 -5.649539992264e-09 0.000000000000e+00
8.990000000000e+02 0.000000000000e+00 2.950000000000e+01 6.441829282936e-08 -5.717114243507e-09 0.000000000000e+00
9.000000000000e+02 0.000000000000e+00 2.950000000000e+01 6.452361547556e-08 -5.716923127349e-09 0.000000000000e+00
