VARIABLES = "X","Y","Z",VELOCITY1_X,VELOCITY1_Y,VELOCITY1_Z
ZONE T="0.000000000000e+00s", 
9.990000000000e+02 0.000000000000e+00 5.000000000000e-01 0.000000000000e+00 0.000000000000e+00 0.000000000000e+00
9.990000000000e+02 0.000000000000e+00 1.500000000000e+00 0.000000000000e+00 0.000000000000e+00 0.000000000000e+00
9.990000000000e+02 0.000000000000e+00 2.500000000000e+00 0.000000000000e+00 0.000000000000e+00 0.000000000000e+00
9.990000000000e+02 0.000000000000e+00 3.500000000000e+00 0.000000000000e+00 0.000000000000e+00 0.000000000000e+00
9.990000000000e+02 0.000000000000e+00 4.500000000000e+00 0.000000000000e+00 0.000000000000e+00 0.000000000000e+00
9.990000000000e+02 0.000000000000e+00 5.500000000000e+00 0.000000000000e+00 0.000000000000e+00 0.000000000000e+00
9.990000000000e+02 0.000000000000e+00 6.500000000000e+00 0.000000000000e+00 0.000000000000e+00 0.000000000000e+00
9.990000000000e+02 0.000000000000e+00 7.500000000000e+00 0.000000000000e+00 0.000000000000e+00 0.000000000000e+00
9.990000000000e+02 0.000000000000e+00 8.500000000000e+00 0.000000000000e+00 0.000000000000e+00 0.000000000000e+00
9.990000000000e+02 0.000000000000e+00 9.500000000000e+00 0.000000000000e+00 0.000000000000e+00 0.000000000000e+00
9.990000000000e+02 0.000000000000e+00 1.050000000000e+01 0.000000000000e+00 0.000000000000e+00 0.000000000000e+00
9.990000000000e+02 0.000000000000e+00 1.150000000000e+01 0.000000000000e+00 0.000000000000e+00 0.000000000000e+00
9.990000000000e+02 0.000000000000e+00 1.250000000000e+01 0.000000000000e+00 0.000000000000e+00 0.000000000000e+00
9.990000000000e+02 0.000000000000e+00 1.350000000000e+01 0.000000000000e+00 0.000000000000e+00 0.000000000000e+00
9.990000000000e+02 0.000000000000e+00 1.450000000000e+01 0.000000000000e+00 0.000000000000e+00 0.000000000000e+00
9.990000000000e+02 0.000000000000e+00 1.550000000000e+01 0.000000000000e+00 0.000000000000e+00 0.000000000000e+00
9.990000000000e+02 0.000000000000e+00 1.650000000000e+01 0.000000000000e+00 0.000000000000e+00 0.000000000000e+00
9.990000000000e+02 0.000000000000e+00 1.750000000000e+01 0.000000000000e+00 0.000000000000e+00 0.000000000000e+00
9.990000000000e+02 0.000000000000e+00 1.850000000000e+01 0.000000000000e+00 0.000000000000e+00 0.000000000000e+00
9.990000000000e+02 0.000000000000e+00 1.950000000000e+01 0.000000000000e+00 0.000000000000e+00 0.000000000000e+00
9.990000000000e+02 0.000000000000e+00 2.050000000000e+01 0.000000000000e+00 0.000000000000e+00 0.000000000000e+00
9.990000000000e+02 0.000000000000e+00 2.150000000000e+01 0.000000000000e+00 0.000000000000e+00 0.000000000000e+00
9.990000000000e+02 0.000000000000e+00 2.250000000000e+01 0.000000000000e+00 0.000000000000e+00 0.000000000000e+00
9.990000000000e+02 0.000000000000e+00 2.350000000000e+01 0.000000000000e+00 0.000000000000e+00 0.000000000000e+00
9.990000000000e+02 0.000000000000e+00 2.450000000000e+01 0.000000000000e+00 0.000000000000e+00 0.000000000000e+00
9.990000000000e+02 0.000000000000e+00 2.550000000000e+01 0.000000000000e+00 0.000000000000e+00 0.000000000000e+00
9.990000000000e+02 0.000000000000e+00 2.650000000000e+01 0.000000000000e+00 0.000000000000e+00 0.000000000000e+00
9.990000000000e+02 0.000000000000e+00 2.750000000000e+01 0.000000000000e+00 0.000000000000e+00 0.000000000000e+00
9.990000000000e+02 0.000000000000e+00 2.850000000000e+01 0.000000000000e+00 0.000000000000e+00 0.000000000000e+00
9.990000000000e+02 0.000000000000e+00 2.950000000000e+01 0.000000000000e+00 0.000000000000e+00 0.000000000000e+00
VARIABLES = "X","Y","Z",VELOCITY1_X,VELOCITY1_Y,VELOCITY1_Z
ZONE T="1.797693134862e+308s", 
9.990000000000e+02 0.000000000000e+00 5.000000000000e-01 1.103434644693e-08 -3.901448834065e-14 0.000000000000e+00
9.990000000000e+02 0.000000000000e+00 1.500000000000e+00 6.758537226290e-08 -3.170716507854e-13 0.000000000000e+00
9.990000000000e+02 0.000000000000e+00 2.500000000000e+00 3.130834058333e-09 -5.672719898412e-13 0.000000000000e+00
9.990000000000e+02 0.000000000000e+00 3.500000000000e+00 2.882979555957e-09 -5.886178313011e-13 0.000000000000e+00
9.990000000000e+02 0.000000000000e+00 4.500000000000e+00 4.797518252329e-07 -2.309688340565e-12 0.000000000000e+00
9.990000000000e+02 0.000000000000e+00 5.500000000000e+00 1.467346625819e-08 -4.071420659677e-12 0.000000000000e+00
9.990000000000e+02 0.000000000000e+00 6.500000000000e+00 1.460845093929e-08 -4.176463697858e-12 0.000000000000e+00
9.990000000000e+02 0.000000000000e+00 7.500000000000e+00 1.096618758884e-08 -4.268715183665e-12 0.000000000000e+00
9.990000000000e+02 0.000000000000e+00 8.500000000000e+00 7.744587935504e-07 -7.124086327879e-12 0.000000000000e+00
9.990000000000e+02 0.000000000000e+00 9.500000000000e+00 2.193001493066e-08 -1.001984395043e-11 0.000000000000e+00
9.990000000000e+02 0.000000000000e+00 1.050000000000e+01 4.466657203844e-08 -1.026445164970e-11 0.000000000000e+00
9.990000000000e+02 0.000000000000e+00 1.150000000000e+01 1.523171816846e-09 -1.043495206889e-11 0.000000000000e+00
9.990000000000e+02 0.000000000000e+00 1.250000000000e+01 8.863370120307e-08 -1.081696893781e-11 0.000000000000e+00
9.990000000000e+02 0.000000000000e+00 1.350000000000e+01 1.000118809369e-06 -1.544059308705e-11 0.000000000000e+00
9.990000000000e+02 0.000000000000e+00 1.450000000000e+01 3.959452170446e-09 -1.970455681501e-11 0.000000000000e+00
9.990000000000e+02 0.000000000000e+00 1.550000000000e+01 1.360022284070e-09 -1.973047021506e-11 0.000000000000e+00
9.990000000000e+02 0.000000000000e+00 1.650000000000e+01 4.687815322826e-08 -2.004885411767e-11 0.000000000000e+00
9.990000000000e+02 0.000000000000e+00 1.750000000000e+01 2.426469563782e-08 -2.052229586140e-11 0.000000000000e+00
9.990000000000e+02 0.000000000000e+00 1.850000000000e+01 2.163679482220e-08 -2.083328444597e-11 0.000000000000e+00
9.990000000000e+02 0.000000000000e+00 1.950000000000e+01 3.273518206316e-07 -2.324718538992e-11 0.000000000000e+00
9.990000000000e+02 0.000000000000e+00 2.050000000000e+01 8.319659343129e-10 -2.552229054205e-11 0.000000000000e+00
9.990000000000e+02 0.000000000000e+00 2.150000000000e+01 6.095719447499e-08 -2.643593730695e-11 0.000000000000e+00
9.990000000000e+02 0.000000000000e+00 2.250000000000e+01 1.537334354525e-07 -2.964571016333e-11 0.000000000000e+00
9.990000000000e+02 0.000000000000e+00 2.350000000000e+01 1.984361663346e-10 -3.197087509126e-11 0.000000000000e+00
9.990000000000e+02 0.000000000000e+00 2.450000000000e+01 3.248446007528e-08 -3.729783065659e-11 0.000000000000e+00
9.990000000000e+02 0.000000000000e+00 2.550000000000e+01 4.107761409816e-09 -4.351436213367e-11 0.000000000000e+00
9.990000000000e+02 0.000000000000e+00 2.650000000000e+01 1.719516682388e-06 -5.367864049174e-10 0.000000000000e+00
9.990000000000e+02 0.000000000000e+00 2.750000000000e+01 7.232280458069e-07 -1.312012023562e-09 0.000000000000e+00
9.990000000000e+02 0.000000000000e+00 2.850000000000e+01 2.185886110251e-08 -1.721799036556e-09 0.000000000000e+00
9.990000000000e+02 0.000000000000e+00 2.950000000000e+01 8.498582359230e-08 -3.742623243718e-09 0.000000000000e+00
