VARIABLES = "X","Y","Z",VELOCITY1_X,VELOCITY1_Y,VELOCITY1_Z
ZONE T="0.000000000000e+00s", 
4.900000000000e+01 0.000000000000e+00 5.000000000000e-01 0.000000000000e+00 0.000000000000e+00 0.000000000000e+00
5.000000000000e+01 0.000000000000e+00 5.000000000000e-01 0.000000000000e+00 0.000000000000e+00 0.000000000000e+00
4.900000000000e+01 0.000000000000e+00 1.500000000000e+00 0.000000000000e+00 0.000000000000e+00 0.000000000000e+00
5.000000000000e+01 0.000000000000e+00 1.500000000000e+00 0.000000000000e+00 0.000000000000e+00 0.000000000000e+00
4.900000000000e+01 0.000000000000e+00 2.500000000000e+00 0.000000000000e+00 0.000000000000e+00 0.000000000000e+00
5.000000000000e+01 0.000000000000e+00 2.500000000000e+00 0.000000000000e+00 0.000000000000e+00 0.000000000000e+00
4.900000000000e+01 0.000000000000e+00 3.500000000000e+00 0.000000000000e+00 0.000000000000e+00 0.000000000000e+00
5.000000000000e+01 0.000000000000e+00 3.500000000000e+00 0.000000000000e+00 0.000000000000e+00 0.000000000000e+00
4.900000000000e+01 0.000000000000e+00 4.500000000000e+00 0.000000000000e+00 0.000000000000e+00 0.000000000000e+00
5.000000000000e+01 0.000000000000e+00 4.500000000000e+00 0.000000000000e+00 0.000000000000e+00 0.000000000000e+00
4.900000000000e+01 0.000000000000e+00 5.500000000000e+00 0.000000000000e+00 0.000000000000e+00 0.000000000000e+00
5.000000000000e+01 0.000000000000e+00 5.500000000000e+00 0.000000000000e+00 0.000000000000e+00 0.000000000000e+00
4.900000000000e+01 0.000000000000e+00 6.500000000000e+00 0.000000000000e+00 0.000000000000e+00 0.000000000000e+00
5.000000000000e+01 0.000000000000e+00 6.500000000000e+00 0.000000000000e+00 0.000000000000e+00 0.000000000000e+00
4.900000000000e+01 0.000000000000e+00 7.500000000000e+00 0.000000000000e+00 0.000000000000e+00 0.000000000000e+00
5.000000000000e+01 0.000000000000e+00 7.500000000000e+00 0.000000000000e+00 0.000000000000e+00 0.000000000000e+00
4.900000000000e+01 0.000000000000e+00 8.500000000000e+00 0.000000000000e+00 0.000000000000e+00 0.000000000000e+00
5.000000000000e+01 0.000000000000e+00 8.500000000000e+00 0.000000000000e+00 0.000000000000e+00 0.000000000000e+00
4.900000000000e+01 0.000000000000e+00 9.500000000000e+00 0.000000000000e+00 0.000000000000e+00 0.000000000000e+00
5.000000000000e+01 0.000000000000e+00 9.500000000000e+00 0.000000000000e+00 0.000000000000e+00 0.000000000000e+00
4.900000000000e+01 0.000000000000e+00 1.050000000000e+01 0.000000000000e+00 0.000000000000e+00 0.000000000000e+00
5.000000000000e+01 0.000000000000e+00 1.050000000000e+01 0.000000000000e+00 0.000000000000e+00 0.000000000000e+00
4.900000000000e+01 0.000000000000e+00 1.150000000000e+01 0.000000000000e+00 0.000000000000e+00 0.000000000000e+00
5.000000000000e+01 0.000000000000e+00 1.150000000000e+01 0.000000000000e+00 0.000000000000e+00 0.000000000000e+00
4.900000000000e+01 0.000000000000e+00 1.250000000000e+01 0.000000000000e+00 0.000000000000e+00 0.000000000000e+00
5.000000000000e+01 0.000000000000e+00 1.250000000000e+01 0.000000000000e+00 0.000000000000e+00 0.000000000000e+00
4.900000000000e+01 0.000000000000e+00 1.350000000000e+01 0.000000000000e+00 0.000000000000e+00 0.000000000000e+00
5.000000000000e+01 0.000000000000e+00 1.350000000000e+01 0.000000000000e+00 0.000000000000e+00 0.000000000000e+00
4.900000000000e+01 0.000000000000e+00 1.450000000000e+01 0.000000000000e+00 0.000000000000e+00 0.000000000000e+00
5.000000000000e+01 0.000000000000e+00 1.450000000000e+01 0.000000000000e+00 0.000000000000e+00 0.000000000000e+00
4.900000000000e+01 0.000000000000e+00 1.550000000000e+01 0.000000000000e+00 0.000000000000e+00 0.000000000000e+00
5.000000000000e+01 0.000000000000e+00 1.550000000000e+01 0.000000000000e+00 0.000000000000e+00 0.000000000000e+00
4.900000000000e+01 0.000000000000e+00 1.650000000000e+01 0.000000000000e+00 0.000000000000e+00 0.000000000000e+00
5.000000000000e+01 0.000000000000e+00 1.650000000000e+01 0.000000000000e+00 0.000000000000e+00 0.000000000000e+00
4.900000000000e+01 0.000000000000e+00 1.750000000000e+01 0.000000000000e+00 0.000000000000e+00 0.000000000000e+00
5.000000000000e+01 0.000000000000e+00 1.750000000000e+01 0.000000000000e+00 0.000000000000e+00 0.000000000000e+00
4.900000000000e+01 0.000000000000e+00 1.850000000000e+01 0.000000000000e+00 0.000000000000e+00 0.000000000000e+00
5.000000000000e+01 0.000000000000e+00 1.850000000000e+01 0.000000000000e+00 0.000000000000e+00 0.000000000000e+00
4.900000000000e+01 0.000000000000e+00 1.950000000000e+01 0.000000000000e+00 0.000000000000e+00 0.000000000000e+00
5.000000000000e+01 0.000000000000e+00 1.950000000000e+01 0.000000000000e+00 0.000000000000e+00 0.000000000000e+00
4.900000000000e+01 0.000000000000e+00 2.050000000000e+01 0.000000000000e+00 0.000000000000e+00 0.000000000000e+00
5.000000000000e+01 0.000000000000e+00 2.050000000000e+01 0.000000000000e+00 0.000000000000e+00 0.000000000000e+00
4.900000000000e+01 0.000000000000e+00 2.150000000000e+01 0.000000000000e+00 0.000000000000e+00 0.000000000000e+00
5.000000000000e+01 0.000000000000e+00 2.150000000000e+01 0.000000000000e+00 0.000000000000e+00 0.000000000000e+00
4.900000000000e+01 0.000000000000e+00 2.250000000000e+01 0.000000000000e+00 0.000000000000e+00 0.000000000000e+00
5.000000000000e+01 0.000000000000e+00 2.250000000000e+01 0.000000000000e+00 0.000000000000e+00 0.000000000000e+00
4.900000000000e+01 0.000000000000e+00 2.350000000000e+01 0.000000000000e+00 0.000000000000e+00 0.000000000000e+00
5.000000000000e+01 0.000000000000e+00 2.350000000000e+01 0.000000000000e+00 0.000000000000e+00 0.000000000000e+00
4.900000000000e+01 0.000000000000e+00 2.450000000000e+01 0.000000000000e+00 0.000000000000e+00 0.000000000000e+00
5.000000000000e+01 0.000000000000e+00 2.450000000000e+01 0.000000000000e+00 0.000000000000e+00 0.000000000000e+00
4.900000000000e+01 0.000000000000e+00 2.550000000000e+01 0.000000000000e+00 0.000000000000e+00 0.000000000000e+00
5.000000000000e+01 0.000000000000e+00 2.550000000000e+01 0.000000000000e+00 0.000000000000e+00 0.000000000000e+00
4.900000000000e+01 0.000000000000e+00 2.650000000000e+01 0.000000000000e+00 0.000000000000e+00 0.000000000000e+00
5.000000000000e+01 0.000000000000e+00 2.650000000000e+01 0.000000000000e+00 0.000000000000e+00 0.000000000000e+00
4.900000000000e+01 0.000000000000e+00 2.750000000000e+01 0.000000000000e+00 0.000000000000e+00 0.000000000000e+00
5.000000000000e+01 0.000000000000e+00 2.750000000000e+01 0.000000000000e+00 0.000000000000e+00 0.000000000000e+00
4.900000000000e+01 0.000000000000e+00 2.850000000000e+01 0.000000000000e+00 0.000000000000e+00 0.000000000000e+00
5.000000000000e+01 0.000000000000e+00 2.850000000000e+01 0.000000000000e+00 0.000000000000e+00 0.000000000000e+00
4.900000000000e+01 0.000000000000e+00 2.950000000000e+01 0.000000000000e+00 0.000000000000e+00 0.000000000000e+00
5.000000000000e+01 0.000000000000e+00 2.950000000000e+01 0.000000000000e+00 0.000000000000e+00 0.000000000000e+00
VARIABLES = "X","Y","Z",VELOCITY1_X,VELOCITY1_Y,VELOCITY1_Z
ZONE T="1.797693134862e+308s", 
4.900000000000e+01 0.000000000000e+00 5.000000000000e-01 7.421016741860e-08 -7.496417946309e-10 0.000000000000e+00
5.000000000000e+01 0.000000000000e+00 5.000000000000e-01 7.570936554455e-08 -7.496406863292e-10 0.000000000000e+00
4.900000000000e+01 0.000000000000e+00 1.500000000000e+00 6.131275324898e-10 -1.505653405400e-09 0.000000000000e+00
5.000000000000e+01 0.000000000000e+00 1.500000000000e+00 6.255139765602e-10 -1.505653403051e-09 0.000000000000e+00
4.900000000000e+01 0.000000000000e+00 2.500000000000e+00 1.757203358108e-08 -1.689353422714e-09 0.000000000000e+00
5.000000000000e+01 0.000000000000e+00 2.500000000000e+00 1.792702451191e-08 -1.689353293780e-09 0.000000000000e+00
4.900000000000e+01 0.000000000000e+00 3.500000000000e+00 2.664576216643e-08 -2.136072310562e-09 0.000000000000e+00
5.000000000000e+01 0.000000000000e+00 3.500000000000e+00 2.718406047238e-08 -2.136072561440e-09 0.000000000000e+00
4.900000000000e+01 0.000000000000e+00 4.500000000000e+00 2.476766598974e-09 -2.430314347406e-09 0.000000000000e+00
5.000000000000e+01 0.000000000000e+00 4.500000000000e+00 2.526802335624e-09 -2.430313718583e-09 0.000000000000e+00
4.900000000000e+01 0.000000000000e+00 5.500000000000e+00 5.501113279811e-08 -3.011038362521e-09 0.000000000000e+00
5.000000000000e+01 0.000000000000e+00 5.500000000000e+00 5.612246731750e-08 -3.011037087300e-09 0.000000000000e+00
4.900000000000e+01 0.000000000000e+00 6.500000000000e+00 1.162578273313e-09 -3.578618885364e-09 0.000000000000e+00
5.000000000000e+01 0.000000000000e+00 6.500000000000e+00 1.186064676984e-09 -3.578618687958e-09 0.000000000000e+00
4.900000000000e+01 0.000000000000e+00 7.500000000000e+00 1.791661922106e-10 -3.592175201762e-09 0.000000000000e+00
5.000000000000e+01 0.000000000000e+00 7.500000000000e+00 1.827857013219e-10 -3.592175069905e-09 0.000000000000e+00
4.900000000000e+01 0.000000000000e+00 8.500000000000e+00 1.305042913331e-09 -3.607168130788e-09 0.000000000000e+00
5.000000000000e+01 0.000000000000e+00 8.500000000000e+00 1.331407224607e-09 -3.607168019185e-09 0.000000000000e+00
4.900000000000e+01 0.000000000000e+00 9.500000000000e+00 1.601557658128e-10 -3.621972426535e-09 0.000000000000e+00
5.000000000000e+01 0.000000000000e+00 9.500000000000e+00 1.633912130829e-10 -3.621972345191e-09 0.000000000000e+00
4.900000000000e+01 0.000000000000e+00 1.050000000000e+01 8.110783315042e-10 -3.631783871446e-09 0.000000000000e+00
5.000000000000e+01 0.000000000000e+00 1.050000000000e+01 8.274636934350e-10 -3.631783778070e-09 0.000000000000e+00
4.900000000000e+01 0.000000000000e+00 1.150000000000e+01 4.875873611329e-09 -3.689233991908e-09 0.000000000000e+00
5.000000000000e+01 0.000000000000e+00 1.150000000000e+01 4.974375916355e-09 -3.689233761103e-09 0.000000000000e+00
4.900000000000e+01 0.000000000000e+00 1.250000000000e+01 8.436734796880e-11 -3.739352726505e-09 0.000000000000e+00
5.000000000000e+01 0.000000000000e+00 1.250000000000e+01 8.607173382740e-11 -3.739352597005e-09 0.000000000000e+00
4.900000000000e+01 0.000000000000e+00 1.350000000000e+01 7.425201371039e-11 -3.740955210528e-09 0.000000000000e+00
5.000000000000e+01 0.000000000000e+00 1.350000000000e+01 7.575204276355e-11 -3.740955083151e-09 0.000000000000e+00
4.900000000000e+01 0.000000000000e+00 1.450000000000e+01 2.176481427466e-10 -3.743904047128e-09 0.000000000000e+00
5.000000000000e+01 0.000000000000e+00 1.450000000000e+01 2.220450027669e-10 -3.743903901676e-09 0.000000000000e+00
4.900000000000e+01 0.000000000000e+00 1.550000000000e+01 3.162000154821e-09 -3.778045190134e-09 0.000000000000e+00
5.000000000000e+01 0.000000000000e+00 1.550000000000e+01 3.225877377539e-09 -3.778044552212e-09 0.000000000000e+00
4.900000000000e+01 0.000000000000e+00 1.650000000000e+01 3.339272866014e-09 -3.843731936113e-09 0.000000000000e+00
5.000000000000e+01 0.000000000000e+00 1.650000000000e+01 3.406730696920e-09 -3.843731216894e-09 0.000000000000e+00
4.900000000000e+01 0.000000000000e+00 1.750000000000e+01 4.448251184008e-11 -3.877923000306e-09 0.000000000000e+00
5.000000000000e+01 0.000000000000e+00 1.750000000000e+01 4.538112036548e-11 -3.877922890369e-09 0.000000000000e+00
4.900000000000e+01 0.000000000000e+00 1.850000000000e+01 3.755423542767e-09 -3.916309291522e-09 0.000000000000e+00
5.000000000000e+01 0.000000000000e+00 1.850000000000e+01 3.831290214399e-09 -3.916308771635e-09 0.000000000000e+00
4.900000000000e+01 0.000000000000e+00 1.950000000000e+01 1.216623757490e-09 -3.966550533920e-09 0.000000000000e+00
5.000000000000e+01 0.000000000000e+00 1.950000000000e+01 1.241201885932e-09 -3.966550473486e-09 0.000000000000e+00
4.900000000000e+01 0.000000000000e+00 2.050000000000e+01 1.739619591081e-10 -3.980601898504e-09 0.000000000000e+00
5.000000000000e+01 0.000000000000e+00 2.050000000000e+01 1.774763408205e-10 -3.980601936142e-09 0.000000000000e+00
4.900000000000e+01 0.000000000000e+00 2.150000000000e+01 7.970902772274e-09 -4.062880749241e-09 0.000000000000e+00
5.000000000000e+01 0.000000000000e+00 2.150000000000e+01 8.131931455760e-09 -4.062880478033e-09 0.000000000000e+00
4.900000000000e+01 0.000000000000e+00 2.250000000000e+01 1.420408232188e-09 -4.157780463878e-09 0.000000000000e+00
5.000000000000e+01 0.000000000000e+00 2.250000000000e+01 1.449103355623e-09 -4.157780097261e-09 0.000000000000e+00
4.900000000000e+01 0.000000000000e+00 2.350000000000e+01 4.296797944174e-08 -4.606189110515e-09 0.000000000000e+00
5.000000000000e+01 0.000000000000e+00 2.350000000000e+01 4.383601726577e-08 -4.606187305370e-09 0.000000000000e+00
4.900000000000e+01 0.000000000000e+00 2.450000000000e+01 8.149496115159e-10 -5.048627610276e-09 0.000000000000e+00
5.000000000000e+01 0.000000000000e+00 2.450000000000e+01 8.314131510716e-10 -5.048627598528e-09 0.000000000000e+00
4.900000000000e+01 0.000000000000e+00 2.550000000000e+01 6.086559105512e-10 -5.063011410429e-09 0.000000000000e+00
5.000000000000e+01 0.000000000000e+00 2.550000000000e+01 6.209519026300e-10 -5.063011395964e-09 0.000000000000e+00
4.900000000000e+01 0.000000000000e+00 2.650000000000e+01 1.007620341279e-11 -5.069262948103e-09 0.000000000000e+00
5.000000000000e+01 0.000000000000e+00 2.650000000000e+01 1.027976185571e-11 -5.069262913057e-09 0.000000000000e+00
4.900000000000e+01 0.000000000000e+00 2.750000000000e+01 3.119622843835e-08 -5.384513375200e-09 0.000000000000e+00
5.000000000000e+01 0.000000000000e+00 2.750000000000e+01 3.182645685969e-08 -5.384513802611e-09 0.000000000000e+00
4.900000000000e+01 0.000000000000e+00 2.850000000000e+01 2.522654117253e-09 -5.725289369571e-09 0.000000000000e+00
5.000000000000e+01 0.000000000000e+00 2.850000000000e+01 2.573617006294e-09 -5.725289361381e-09 0.000000000000e+00
4.900000000000e+01 0.000000000000e+00 2.950000000000e+01 9.317517812713e-10 -5.760196336098e-09 0.000000000000e+00
5.000000000000e+01 0.000000000000e+00 2.950000000000e+01 9.505751300921e-10 -5.760196334586e-09 0.000000000000e+00
