VARIABLES = "X","Y","Z",VELOCITY1_X,VELOCITY1_Y,VELOCITY1_Z
ZONE T="0.000000000000e+00s", 
2.490000000000e+02 0.000000000000e+00 5.000000000000e-01 0.000000000000e+00 0.000000000000e+00 0.000000000000e+00
2.500000000000e+02 0.000000000000e+00 5.000000000000e-01 0.000000000000e+00 0.000000000000e+00 0.000000000000e+00
2.490000000000e+02 0.000000000000e+00 1.500000000000e+00 0.000000000000e+00 0.000000000000e+00 0.000000000000e+00
2.500000000000e+02 0.000000000000e+00 1.500000000000e+00 0.000000000000e+00 0.000000000000e+00 0.000000000000e+00
2.490000000000e+02 0.000000000000e+00 2.500000000000e+00 0.000000000000e+00 0.000000000000e+00 0.000000000000e+00
2.500000000000e+02 0.000000000000e+00 2.500000000000e+00 0.000000000000e+00 0.000000000000e+00 0.000000000000e+00
2.490000000000e+02 0.000000000000e+00 3.500000000000e+00 0.000000000000e+00 0.000000000000e+00 0.000000000000e+00
2.500000000000e+02 0.000000000000e+00 3.500000000000e+00 0.000000000000e+00 0.000000000000e+00 0.000000000000e+00
2.490000000000e+02 0.000000000000e+00 4.500000000000e+00 0.000000000000e+00 0.000000000000e+00 0.000000000000e+00
2.500000000000e+02 0.000000000000e+00 4.500000000000e+00 0.000000000000e+00 0.000000000000e+00 0.000000000000e+00
2.490000000000e+02 0.000000000000e+00 5.500000000000e+00 0.000000000000e+00 0.000000000000e+00 0.000000000000e+00
2.500000000000e+02 0.000000000000e+00 5.500000000000e+00 0.000000000000e+00 0.000000000000e+00 0.000000000000e+00
2.490000000000e+02 0.000000000000e+00 6.500000000000e+00 0.000000000000e+00 0.000000000000e+00 0.000000000000e+00
2.500000000000e+02 0.000000000000e+00 6.500000000000e+00 0.000000000000e+00 0.000000000000e+00 0.000000000000e+00
2.490000000000e+02 0.000000000000e+00 7.500000000000e+00 0.000000000000e+00 0.000000000000e+00 0.000000000000e+00
2.500000000000e+02 0.000000000000e+00 7.500000000000e+00 0.000000000000e+00 0.000000000000e+00 0.000000000000e+00
2.490000000000e+02 0.000000000000e+00 8.500000000000e+00 0.000000000000e+00 0.000000000000e+00 0.000000000000e+00
2.500000000000e+02 0.000000000000e+00 8.500000000000e+00 0.000000000000e+00 0.000000000000e+00 0.000000000000e+00
2.490000000000e+02 0.000000000000e+00 9.500000000000e+00 0.000000000000e+00 0.000000000000e+00 0.000000000000e+00
2.500000000000e+02 0.000000000000e+00 9.500000000000e+00 0.000000000000e+00 0.000000000000e+00 0.000000000000e+00
2.490000000000e+02 0.000000000000e+00 1.050000000000e+01 0.000000000000e+00 0.000000000000e+00 0.000000000000e+00
2.500000000000e+02 0.000000000000e+00 1.050000000000e+01 0.000000000000e+00 0.000000000000e+00 0.000000000000e+00
2.490000000000e+02 0.000000000000e+00 1.150000000000e+01 0.000000000000e+00 0.000000000000e+00 0.000000000000e+00
2.500000000000e+02 0.000000000000e+00 1.150000000000e+01 0.000000000000e+00 0.000000000000e+00 0.000000000000e+00
2.490000000000e+02 0.000000000000e+00 1.250000000000e+01 0.000000000000e+00 0.000000000000e+00 0.000000000000e+00
2.500000000000e+02 0.000000000000e+00 1.250000000000e+01 0.000000000000e+00 0.000000000000e+00 0.000000000000e+00
2.490000000000e+02 0.000000000000e+00 1.350000000000e+01 0.000000000000e+00 0.000000000000e+00 0.000000000000e+00
2.500000000000e+02 0.000000000000e+00 1.350000000000e+01 0.000000000000e+00 0.000000000000e+00 0.000000000000e+00
2.490000000000e+02 0.000000000000e+00 1.450000000000e+01 0.000000000000e+00 0.000000000000e+00 0.000000000000e+00
2.500000000000e+02 0.000000000000e+00 1.450000000000e+01 0.000000000000e+00 0.000000000000e+00 0.000000000000e+00
2.490000000000e+02 0.000000000000e+00 1.550000000000e+01 0.000000000000e+00 0.000000000000e+00 0.000000000000e+00
2.500000000000e+02 0.000000000000e+00 1.550000000000e+01 0.000000000000e+00 0.000000000000e+00 0.000000000000e+00
2.490000000000e+02 0.000000000000e+00 1.650000000000e+01 0.000000000000e+00 0.000000000000e+00 0.000000000000e+00
2.500000000000e+02 0.000000000000e+00 1.650000000000e+01 0.000000000000e+00 0.000000000000e+00 0.000000000000e+00
2.490000000000e+02 0.000000000000e+00 1.750000000000e+01 0.000000000000e+00 0.000000000000e+00 0.000000000000e+00
2.500000000000e+02 0.000000000000e+00 1.750000000000e+01 0.000000000000e+00 0.000000000000e+00 0.000000000000e+00
2.490000000000e+02 0.000000000000e+00 1.850000000000e+01 0.000000000000e+00 0.000000000000e+00 0.000000000000e+00
2.500000000000e+02 0.000000000000e+00 1.850000000000e+01 0.000000000000e+00 0.000000000000e+00 0.000000000000e+00
2.490000000000e+02 0.000000000000e+00 1.950000000000e+01 0.000000000000e+00 0.000000000000e+00 0.000000000000e+00
2.500000000000e+02 0.000000000000e+00 1.950000000000e+01 0.000000000000e+00 0.000000000000e+00 0.000000000000e+00
2.490000000000e+02 0.000000000000e+00 2.050000000000e+01 0.000000000000e+00 0.000000000000e+00 0.000000000000e+00
2.500000000000e+02 0.000000000000e+00 2.050000000000e+01 0.000000000000e+00 0.000000000000e+00 0.000000000000e+00
2.490000000000e+02 0.000000000000e+00 2.150000000000e+01 0.000000000000e+00 0.000000000000e+00 0.000000000000e+00
2.500000000000e+02 0.000000000000e+00 2.150000000000e+01 0.000000000000e+00 0.000000000000e+00 0.000000000000e+00
2.490000000000e+02 0.000000000000e+00 2.250000000000e+01 0.000000000000e+00 0.000000000000e+00 0.000000000000e+00
2.500000000000e+02 0.000000000000e+00 2.250000000000e+01 0.000000000000e+00 0.000000000000e+00 0.000000000000e+00
2.490000000000e+02 0.000000000000e+00 2.350000000000e+01 0.000000000000e+00 0.000000000000e+00 0.000000000000e+00
2.500000000000e+02 0.000000000000e+00 2.350000000000e+01 0.000000000000e+00 0.000000000000e+00 0.000000000000e+00
2.490000000000e+02 0.000000000000e+00 2.450000000000e+01 0.000000000000e+00 0.000000000000e+00 0.000000000000e+00
2.500000000000e+02 0.000000000000e+00 2.450000000000e+01 0.000000000000e+00 0.000000000000e+00 0.000000000000e+00
2.490000000000e+02 0.000000000000e+00 2.550000000000e+01 0.000000000000e+00 0.000000000000e+00 0.000000000000e+00
2.500000000000e+02 0.000000000000e+00 2.550000000000e+01 0.000000000000e+00 0.000000000000e+00 0.000000000000e+00
2.490000000000e+02 0.000000000000e+00 2.650000000000e+01 0.000000000000e+00 0.000000000000e+00 0.000000000000e+00
2.500000000000e+02 0.000000000000e+00 2.650000000000e+01 0.000000000000e+00 0.000000000000e+00 0.000000000000e+00
2.490000000000e+02 0.000000000000e+00 2.750000000000e+01 0.000000000000e+00 0.000000000000e+00 0.000000000000e+00
2.500000000000e+02 0.000000000000e+00 2.750000000000e+01 0.000000000000e+00 0.000000000000e+00 0.000000000000e+00
2.490000000000e+02 0.000000000000e+00 2.850000000000e+01 0.000000000000e+00 0.000000000000e+00 0.000000000000e+00
2.500000000000e+02 0.000000000000e+00 2.850000000000e+01 0.000000000000e+00 0.000000000000e+00 0.000000000000e+00
2.490000000000e+02 0.000000000000e+00 2.950000000000e+01 0.000000000000e+00 0.000000000000e+00 0.000000000000e+00
2.500000000000e+02 0.000000000000e+00 2.950000000000e+01 0.000000000000e+00 0.000000000000e+00 0.000000000000e+00
VARIABLES = "X","Y","Z",VELOCITY1_X,VELOCITY1_Y,VELOCITY1_Z
ZONE T="1.797693134862e+308s", 
2.490000000000e+02 0.000000000000e+00 5.000000000000e-01 3.740540736020e-07 -7.496399635238e-10 0.000000000000e+00
2.500000000000e+02 0.000000000000e+00 5.000000000000e-01 3.755533142380e-07 -7.496379107563e-10 0.000000000000e+00
2.490000000000e+02 0.000000000000e+00 1.500000000000e+00 3.090450674474e-09 -1.505555546739e-09 0.000000000000e+00
2.500000000000e+02 0.000000000000e+00 1.500000000000e+00 3.102837462722e-09 -1.505554047765e-09 0.000000000000e+00
2.490000000000e+02 0.000000000000e+00 2.500000000000e+00 8.857133830823e-08 -1.689255572131e-09 0.000000000000e+00
2.500000000000e+02 0.000000000000e+00 2.500000000000e+00 8.892633954893e-08 -1.689254215473e-09 0.000000000000e+00
2.490000000000e+02 0.000000000000e+00 3.500000000000e+00 1.343072116085e-07 -2.135950504880e-09 0.000000000000e+00
2.500000000000e+02 0.000000000000e+00 3.500000000000e+00 1.348455263234e-07 -2.135948849084e-09 0.000000000000e+00
2.490000000000e+02 0.000000000000e+00 4.500000000000e+00 1.248407222198e-08 -2.430162742951e-09 0.000000000000e+00
2.500000000000e+02 0.000000000000e+00 4.500000000000e+00 1.253410948007e-08 -2.430160688742e-09 0.000000000000e+00
2.490000000000e+02 0.000000000000e+00 5.500000000000e+00 2.772820400747e-07 -3.010886179011e-09 0.000000000000e+00
2.500000000000e+02 0.000000000000e+00 5.500000000000e+00 2.783934132348e-07 -3.010883725014e-09 0.000000000000e+00
2.490000000000e+02 0.000000000000e+00 6.500000000000e+00 5.859942749830e-09 -3.578390265880e-09 0.000000000000e+00
2.500000000000e+02 0.000000000000e+00 6.500000000000e+00 5.883429988976e-09 -3.578386454244e-09 0.000000000000e+00
2.490000000000e+02 0.000000000000e+00 7.500000000000e+00 9.030828372641e-10 -3.591945087749e-09 0.000000000000e+00
2.500000000000e+02 0.000000000000e+00 7.500000000000e+00 9.067025000539e-10 -3.591941257405e-09 0.000000000000e+00
2.490000000000e+02 0.000000000000e+00 8.500000000000e+00 6.578057813780e-09 -3.606938292100e-09 0.000000000000e+00
2.500000000000e+02 0.000000000000e+00 8.500000000000e+00 6.604423724236e-09 -3.606934459542e-09 0.000000000000e+00
2.490000000000e+02 0.000000000000e+00 9.500000000000e+00 8.072645269408e-10 -3.621740790221e-09 0.000000000000e+00
2.500000000000e+02 0.000000000000e+00 9.500000000000e+00 8.105001901767e-10 -3.621736975342e-09 0.000000000000e+00
2.490000000000e+02 0.000000000000e+00 1.050000000000e+01 4.088252921164e-09 -3.631552380038e-09 0.000000000000e+00
2.500000000000e+02 0.000000000000e+00 1.050000000000e+01 4.104639548391e-09 -3.631548590417e-09 0.000000000000e+00
2.490000000000e+02 0.000000000000e+00 1.150000000000e+01 2.457693468958e-08 -3.689003482575e-09 0.000000000000e+00
2.500000000000e+02 0.000000000000e+00 1.150000000000e+01 2.467544474095e-08 -3.688999725418e-09 0.000000000000e+00
2.490000000000e+02 0.000000000000e+00 1.250000000000e+01 4.252556473520e-10 -3.739117066766e-09 0.000000000000e+00
2.500000000000e+02 0.000000000000e+00 1.250000000000e+01 4.269601775243e-10 -3.739113133830e-09 0.000000000000e+00
2.490000000000e+02 0.000000000000e+00 1.350000000000e+01 3.742719863627e-10 -3.740719562434e-09 0.000000000000e+00
2.500000000000e+02 0.000000000000e+00 1.350000000000e+01 3.757721999569e-10 -3.740715620937e-09 0.000000000000e+00
2.490000000000e+02 0.000000000000e+00 1.450000000000e+01 1.097078183780e-09 -3.743668625242e-09 0.000000000000e+00
2.500000000000e+02 0.000000000000e+00 1.450000000000e+01 1.101475739489e-09 -3.743664691061e-09 0.000000000000e+00
2.490000000000e+02 0.000000000000e+00 1.550000000000e+01 1.593843284268e-08 -3.777813312918e-09 0.000000000000e+00
2.500000000000e+02 0.000000000000e+00 1.550000000000e+01 1.600232142442e-08 -3.777809396075e-09 0.000000000000e+00
2.490000000000e+02 0.000000000000e+00 1.650000000000e+01 1.683199708121e-08 -3.843500169200e-09 0.000000000000e+00
2.500000000000e+02 0.000000000000e+00 1.650000000000e+01 1.689946774814e-08 -3.843496343698e-09 0.000000000000e+00
2.490000000000e+02 0.000000000000e+00 1.750000000000e+01 2.242197004744e-10 -3.877689567848e-09 0.000000000000e+00
2.500000000000e+02 0.000000000000e+00 1.750000000000e+01 2.251184876738e-10 -3.877685707044e-09 0.000000000000e+00
2.490000000000e+02 0.000000000000e+00 1.850000000000e+01 1.892993371998e-08 -3.916081885770e-09 0.000000000000e+00
2.500000000000e+02 0.000000000000e+00 1.850000000000e+01 1.900581683155e-08 -3.916078164627e-09 0.000000000000e+00
2.490000000000e+02 0.000000000000e+00 1.950000000000e+01 6.132626443748e-09 -3.966323296455e-09 0.000000000000e+00
2.500000000000e+02 0.000000000000e+00 1.950000000000e+01 6.157209907950e-09 -3.966319665997e-09 0.000000000000e+00
2.490000000000e+02 0.000000000000e+00 2.050000000000e+01 8.768896401261e-10 -3.980374851915e-09 0.000000000000e+00
2.500000000000e+02 0.000000000000e+00 2.050000000000e+01 8.804047836191e-10 -3.980371138600e-09 0.000000000000e+00
2.490000000000e+02 0.000000000000e+00 2.150000000000e+01 4.017906984314e-08 -4.062668125631e-09 0.000000000000e+00
2.500000000000e+02 0.000000000000e+00 2.150000000000e+01 4.034013516196e-08 -4.062664690508e-09 0.000000000000e+00
2.490000000000e+02 0.000000000000e+00 2.250000000000e+01 7.159877256373e-09 -4.157568084498e-09 0.000000000000e+00
2.500000000000e+02 0.000000000000e+00 2.250000000000e+01 7.188578968409e-09 -4.157564511752e-09 0.000000000000e+00
2.490000000000e+02 0.000000000000e+00 2.350000000000e+01 2.165895087132e-07 -4.606057256823e-09 0.000000000000e+00
2.500000000000e+02 0.000000000000e+00 2.350000000000e+01 2.174577510926e-07 -4.606054943894e-09 0.000000000000e+00
2.490000000000e+02 0.000000000000e+00 2.450000000000e+01 4.107932067030e-09 -5.048489776035e-09 0.000000000000e+00
2.500000000000e+02 0.000000000000e+00 2.450000000000e+01 4.124399525307e-09 -5.048487520350e-09 0.000000000000e+00
2.490000000000e+02 0.000000000000e+00 2.550000000000e+01 3.068065154072e-09 -5.062874542343e-09 0.000000000000e+00
2.500000000000e+02 0.000000000000e+00 2.550000000000e+01 3.080364102106e-09 -5.062872328422e-09 0.000000000000e+00
2.490000000000e+02 0.000000000000e+00 2.650000000000e+01 5.079160373081e-11 -5.069126522064e-09 0.000000000000e+00
2.500000000000e+02 0.000000000000e+00 2.650000000000e+01 5.099521560958e-11 -5.069124270609e-09 0.000000000000e+00
2.490000000000e+02 0.000000000000e+00 2.750000000000e+01 1.572580267613e-07 -5.384473170192e-09 0.000000000000e+00
2.500000000000e+02 0.000000000000e+00 2.750000000000e+01 1.578884905284e-07 -5.384468091900e-09 0.000000000000e+00
2.490000000000e+02 0.000000000000e+00 2.850000000000e+01 1.271652550844e-08 -5.725281955405e-09 0.000000000000e+00
2.500000000000e+02 0.000000000000e+00 2.850000000000e+01 1.276750618919e-08 -5.725280564562e-09 0.000000000000e+00
2.490000000000e+02 0.000000000000e+00 2.950000000000e+01 4.696897005738e-09 -5.760194379622e-09 0.000000000000e+00
2.500000000000e+02 0.000000000000e+00 2.950000000000e+01 4.715726580770e-09 -5.760194209130e-09 0.000000000000e+00
