VARIABLES = "X","Y","Z",VELOCITY1_X,VELOCITY1_Y,VELOCITY1_Z
ZONE T="0.000000000000e+00s", 
8.990000000000e+02 0.000000000000e+00 5.000000000000e-01 0.000000000000e+00 0.000000000000e+00 0.000000000000e+00
9.000000000000e+02 0.000000000000e+00 5.000000000000e-01 0.000000000000e+00 0.000000000000e+00 0.000000000000e+00
8.990000000000e+02 0.000000000000e+00 1.500000000000e+00 0.000000000000e+00 0.000000000000e+00 0.000000000000e+00
9.000000000000e+02 0.000000000000e+00 1.500000000000e+00 0.000000000000e+00 0.000000000000e+00 0.000000000000e+00
8.990000000000e+02 0.000000000000e+00 2.500000000000e+00 0.000000000000e+00 0.000000000000e+00 0.000000000000e+00
9.000000000000e+02 0.000000000000e+00 2.500000000000e+00 0.000000000000e+00 0.000000000000e+00 0.000000000000e+00
8.990000000000e+02 0.000000000000e+00 3.500000000000e+00 0.000000000000e+00 0.000000000000e+00 0.000000000000e+00
9.000000000000e+02 0.000000000000e+00 3.500000000000e+00 0.000000000000e+00 0.000000000000e+00 0.000000000000e+00
8.990000000000e+02 0.000000000000e+00 4.500000000000e+00 0.000000000000e+00 0.000000000000e+00 0.000000000000e+00
9.000000000000e+02 0.000000000000e+00 4.500000000000e+00 0.000000000000e+00 0.000000000000e+00 0.000000000000e+00
8.990000000000e+02 0.000000000000e+00 5.500000000000e+00 0.000000000000e+00 0.000000000000e+00 0.000000000000e+00
9.000000000000e+02 0.000000000000e+00 5.500000000000e+00 0.000000000000e+00 0.000000000000e+00 0.000000000000e+00
8.990000000000e+02 0.000000000000e+00 6.500000000000e+00 0.000000000000e+00 0.000000000000e+00 0.000000000000e+00
9.000000000000e+02 0.000000000000e+00 6.500000000000e+00 0.000000000000e+00 0.000000000000e+00 0.000000000000e+00
8.990000000000e+02 0.000000000000e+00 7.500000000000e+00 0.000000000000e+00 0.000000000000e+00 0.000000000000e+00
9.000000000000e+02 0.000000000000e+00 7.500000000000e+00 0.000000000000e+00 0.000000000000e+00 0.000000000000e+00
8.990000000000e+02 0.000000000000e+00 8.500000000000e+00 0.000000000000e+00 0.000000000000e+00 0.000000000000e+00
9.000000000000e+02 0.000000000000e+00 8.500000000000e+00 0.000000000000e+00 0.000000000000e+00 0.000000000000e+00
8.990000000000e+02 0.000000000000e+00 9.500000000000e+00 0.000000000000e+00 0.000000000000e+00 0.000000000000e+00
9.000000000000e+02 0.000000000000e+00 9.500000000000e+00 0.000000000000e+00 0.000000000000e+00 0.000000000000e+00
8.990000000000e+02 0.000000000000e+00 1.050000000000e+01 0.000000000000e+00 0.000000000000e+00 0.000000000000e+00
9.000000000000e+02 0.000000000000e+00 1.050000000000e+01 0.000000000000e+00 0.000000000000e+00 0.000000000000e+00
8.990000000000e+02 0.000000000000e+00 1.150000000000e+01 0.000000000000e+00 0.000000000000e+00 0.000000000000e+00
9.000000000000e+02 0.000000000000e+00 1.150000000000e+01 0.000000000000e+00 0.000000000000e+00 0.000000000000e+00
8.990000000000e+02 0.000000000000e+00 1.250000000000e+01 0.000000000000e+00 0.000000000000e+00 0.000000000000e+00
9.000000000000e+02 0.000000000000e+00 1.250000000000e+01 0.000000000000e+00 0.000000000000e+00 0.000000000000e+00
8.990000000000e+02 0.000000000000e+00 1.350000000000e+01 0.000000000000e+00 0.000000000000e+00 0.000000000000e+00
9.000000000000e+02 0.000000000000e+00 1.350000000000e+01 0.000000000000e+00 0.000000000000e+00 0.000000000000e+00
8.990000000000e+02 0.000000000000e+00 1.450000000000e+01 0.000000000000e+00 0.000000000000e+00 0.000000000000e+00
9.000000000000e+02 0.000000000000e+00 1.450000000000e+01 0.000000000000e+00 0.000000000000e+00 0.000000000000e+00
8.990000000000e+02 0.000000000000e+00 1.550000000000e+01 0.000000000000e+00 0.000000000000e+00 0.000000000000e+00
9.000000000000e+02 0.000000000000e+00 1.550000000000e+01 0.000000000000e+00 0.000000000000e+00 0.000000000000e+00
8.990000000000e+02 0.000000000000e+00 1.650000000000e+01 0.000000000000e+00 0.000000000000e+00 0.000000000000e+00
9.000000000000e+02 0.000000000000e+00 1.650000000000e+01 0.000000000000e+00 0.000000000000e+00 0.000000000000e+00
8.990000000000e+02 0.000000000000e+00 1.750000000000e+01 0.000000000000e+00 0.000000000000e+00 0.000000000000e+00
9.000000000000e+02 0.000000000000e+00 1.750000000000e+01 0.000000000000e+00 0.000000000000e+00 0.000000000000e+00
8.990000000000e+02 0.000000000000e+00 1.850000000000e+01 0.000000000000e+00 0.000000000000e+00 0.000000000000e+00
9.000000000000e+02 0.000000000000e+00 1.850000000000e+01 0.000000000000e+00 0.000000000000e+00 0.000000000000e+00
8.990000000000e+02 0.000000000000e+00 1.950000000000e+01 0.000000000000e+00 0.000000000000e+00 0.000000000000e+00
9.000000000000e+02 0.000000000000e+00 1.950000000000e+01 0.000000000000e+00 0.000000000000e+00 0.000000000000e+00
8.990000000000e+02 0.000000000000e+00 2.050000000000e+01 0.000000000000e+00 0.000000000000e+00 0.000000000000e+00
9.000000000000e+02 0.000000000000e+00 2.050000000000e+01 0.000000000000e+00 0.000000000000e+00 0.000000000000e+00
8.990000000000e+02 0.000000000000e+00 2.150000000000e+01 0.000000000000e+00 0.000000000000e+00 0.000000000000e+00
9.000000000000e+02 0.000000000000e+00 2.150000000000e+01 0.000000000000e+00 0.000000000000e+00 0.000000000000e+00
8.990000000000e+02 0.000000000000e+00 2.250000000000e+01 0.000000000000e+00 0.000000000000e+00 0.000000000000e+00
9.000000000000e+02 0.000000000000e+00 2.250000000000e+01 0.000000000000e+00 0.000000000000e+00 0.000000000000e+00
8.990000000000e+02 0.000000000000e+00 2.350000000000e+01 0.000000000000e+00 0.000000000000e+00 0.000000000000e+00
9.000000000000e+02 0.000000000000e+00 2.350000000000e+01 0.000000000000e+00 0.000000000000e+00 0.000000000000e+00
8.990000000000e+02 0.000000000000e+00 2.450000000000e+01 0.000000000000e+00 0.000000000000e+00 0.000000000000e+00
9.000000000000e+02 0.000000000000e+00 2.450000000000e+01 0.000000000000e+00 0.000000000000e+00 0.000000000000e+00
8.990000000000e+02 0.000000000000e+00 2.550000000000e+01 0.000000000000e+00 0.000000000000e+00 0.000000000000e+00
9.000000000000e+02 0.000000000000e+00 2.550000000000e+01 0.000000000000e+00 0.000000000000e+00 0.000000000000e+00
8.990000000000e+02 0.000000000000e+00 2.650000000000e+01 0.000000000000e+00 0.000000000000e+00 0.000000000000e+00
9.000000000000e+02 0.000000000000e+00 2.650000000000e+01 0.000000000000e+00 0.000000000000e+00 0.000000000000e+00
8.990000000000e+02 0.000000000000e+00 2.750000000000e+01 0.000000000000e+00 0.000000000000e+00 0.000000000000e+00
9.000000000000e+02 0.000000000000e+00 2.750000000000e+01 0.000000000000e+00 0.000000000000e+00 0.000000000000e+00
8.990000000000e+02 0.000000000000e+00 2.850000000000e+01 0.000000000000e+00 0.000000000000e+00 0.000000000000e+00
9.000000000000e+02 0.000000000000e+00 2.850000000000e+01 0.000000000000e+00 0.000000000000e+00 0.000000000000e+00
8.990000000000e+02 0.000000000000e+00 2.950000000000e+01 0.000000000000e+00 0.000000000000e+00 0.000000000000e+00
9.000000000000e+02 0.000000000000e+00 2.950000000000e+01 0.000000000000e+00 0.000000000000e+00 0.000000000000e+00
VARIABLES = "X","Y","Z",VELOCITY1_X,VELOCITY1_Y,VELOCITY1_Z
ZONE T="1.797693134862e+308s", 
8.990000000000e+02 0.000000000000e+00 5.000000000000e-01 1.304169113638e-06 -4.789438980537e-10 0.000000000000e+00
9.000000000000e+02 0.000000000000e+00 5.000000000000e-01 1.305121416568e-06 -4.758047009392e-10 0.000000000000e+00
8.990000000000e+02 0.000000000000e+00 1.500000000000e+00 1.077583234063e-08 -9.618768537266e-10 0.000000000000e+00
9.000000000000e+02 0.000000000000e+00 1.500000000000e+00 1.078370768918e-08 -9.555762918293e-10 0.000000000000e+00
8.990000000000e+02 0.000000000000e+00 2.500000000000e+00 3.089926456963e-07 -1.080182352051e-09 0.000000000000e+00
9.000000000000e+02 0.000000000000e+00 2.500000000000e+00 3.092199734881e-07 -1.073118573320e-09 0.000000000000e+00
8.990000000000e+02 0.000000000000e+00 3.500000000000e+00 4.685586849950e-07 -1.367938132957e-09 0.000000000000e+00
9.000000000000e+02 0.000000000000e+00 3.500000000000e+00 4.689035046509e-07 -1.359019427485e-09 0.000000000000e+00
8.990000000000e+02 0.000000000000e+00 4.500000000000e+00 4.355516143728e-08 -1.557509599858e-09 0.000000000000e+00
9.000000000000e+02 0.000000000000e+00 4.500000000000e+00 4.358723203225e-08 -1.547369603743e-09 0.000000000000e+00
8.990000000000e+02 0.000000000000e+00 5.500000000000e+00 9.675986792176e-07 -1.932904508413e-09 0.000000000000e+00
9.000000000000e+02 0.000000000000e+00 5.500000000000e+00 9.683130367306e-07 -1.920361342333e-09 0.000000000000e+00
8.990000000000e+02 0.000000000000e+00 6.500000000000e+00 2.045066582828e-08 -2.299801726954e-09 0.000000000000e+00
9.000000000000e+02 0.000000000000e+00 6.500000000000e+00 2.046578223334e-08 -2.284911369579e-09 0.000000000000e+00
8.990000000000e+02 0.000000000000e+00 7.500000000000e+00 3.155389712151e-09 -2.308652462289e-09 0.000000000000e+00
9.000000000000e+02 0.000000000000e+00 7.500000000000e+00 3.157757308972e-09 -2.293706653675e-09 0.000000000000e+00
8.990000000000e+02 0.000000000000e+00 8.500000000000e+00 2.308195263429e-08 -2.319071238103e-09 0.000000000000e+00
9.000000000000e+02 0.000000000000e+00 8.500000000000e+00 2.310020220823e-08 -2.304068196744e-09 0.000000000000e+00
8.990000000000e+02 0.000000000000e+00 9.500000000000e+00 2.835959776269e-09 -2.329442695018e-09 0.000000000000e+00
9.000000000000e+02 0.000000000000e+00 9.500000000000e+00 2.838233437290e-09 -2.314383695833e-09 0.000000000000e+00
8.990000000000e+02 0.000000000000e+00 1.050000000000e+01 1.443146029609e-08 -2.336781684925e-09 0.000000000000e+00
9.000000000000e+02 0.000000000000e+00 1.050000000000e+01 1.444368449154e-08 -2.321688687429e-09 0.000000000000e+00
8.990000000000e+02 0.000000000000e+00 1.150000000000e+01 8.683820612893e-08 -2.380292810109e-09 0.000000000000e+00
9.000000000000e+02 0.000000000000e+00 1.150000000000e+01 8.691253519946e-08 -2.365004263410e-09 0.000000000000e+00
8.990000000000e+02 0.000000000000e+00 1.250000000000e+01 1.504537672234e-09 -2.418324708715e-09 0.000000000000e+00
9.000000000000e+02 0.000000000000e+00 1.250000000000e+01 1.505844230078e-09 -2.402866254388e-09 0.000000000000e+00
8.990000000000e+02 0.000000000000e+00 1.350000000000e+01 1.337945370033e-09 -2.419690305343e-09 0.000000000000e+00
9.000000000000e+02 0.000000000000e+00 1.350000000000e+01 1.339238210801e-09 -2.404227460955e-09 0.000000000000e+00
8.990000000000e+02 0.000000000000e+00 1.450000000000e+01 3.963701659573e-09 -2.422515948666e-09 0.000000000000e+00
9.000000000000e+02 0.000000000000e+00 1.450000000000e+01 3.967925524043e-09 -2.407047203962e-09 0.000000000000e+00
8.990000000000e+02 0.000000000000e+00 1.550000000000e+01 5.778568392601e-08 -2.456467627740e-09 0.000000000000e+00
9.000000000000e+02 0.000000000000e+00 1.550000000000e+01 5.784913188754e-08 -2.440939247562e-09 0.000000000000e+00
8.990000000000e+02 0.000000000000e+00 1.650000000000e+01 6.104163090842e-08 -2.521945791927e-09 0.000000000000e+00
9.000000000000e+02 0.000000000000e+00 1.650000000000e+01 6.110880688060e-08 -2.506303822133e-09 0.000000000000e+00
8.990000000000e+02 0.000000000000e+00 1.750000000000e+01 8.150882294049e-10 -2.556109496675e-09 0.000000000000e+00
9.000000000000e+02 0.000000000000e+00 1.750000000000e+01 8.160040572537e-10 -2.540409086891e-09 0.000000000000e+00
8.990000000000e+02 0.000000000000e+00 1.850000000000e+01 6.998990477632e-08 -2.601626313584e-09 0.000000000000e+00
9.000000000000e+02 0.000000000000e+00 1.850000000000e+01 7.007987621901e-08 -2.585917989509e-09 0.000000000000e+00
8.990000000000e+02 0.000000000000e+00 1.950000000000e+01 2.268051787249e-08 -2.661297273485e-09 0.000000000000e+00
9.000000000000e+02 0.000000000000e+00 1.950000000000e+01 2.270973429846e-08 -2.645579400073e-09 0.000000000000e+00
8.990000000000e+02 0.000000000000e+00 2.050000000000e+01 3.246791033879e-09 -2.678084916299e-09 0.000000000000e+00
9.000000000000e+02 0.000000000000e+00 2.050000000000e+01 3.251010530267e-09 -2.662365216874e-09 0.000000000000e+00
8.990000000000e+02 0.000000000000e+00 2.150000000000e+01 1.494074159979e-07 -2.780484137878e-09 0.000000000000e+00
9.000000000000e+02 0.000000000000e+00 2.150000000000e+01 1.496079045471e-07 -2.764791108732e-09 0.000000000000e+00
8.990000000000e+02 0.000000000000e+00 2.250000000000e+01 2.662851606619e-08 -2.898661250512e-09 0.000000000000e+00
9.000000000000e+02 0.000000000000e+00 2.250000000000e+01 2.666429256782e-08 -2.883000455791e-09 0.000000000000e+00
8.990000000000e+02 0.000000000000e+00 2.350000000000e+01 8.059457671526e-07 -3.460112855057e-09 0.000000000000e+00
9.000000000000e+02 0.000000000000e+00 2.350000000000e+01 8.070330608306e-07 -3.444633916809e-09 0.000000000000e+00
8.990000000000e+02 0.000000000000e+00 2.450000000000e+01 1.528790236150e-08 -4.014021193303e-09 0.000000000000e+00
9.000000000000e+02 0.000000000000e+00 2.450000000000e+01 1.530855550787e-08 -3.998725185318e-09 0.000000000000e+00
8.990000000000e+02 0.000000000000e+00 2.550000000000e+01 1.142981016852e-08 -4.032240925256e-09 0.000000000000e+00
9.000000000000e+02 0.000000000000e+00 2.550000000000e+01 1.144542412038e-08 -4.016954514024e-09 0.000000000000e+00
8.990000000000e+02 0.000000000000e+00 2.650000000000e+01 1.911617664598e-10 -4.040281919667e-09 0.000000000000e+00
9.000000000000e+02 0.000000000000e+00 2.650000000000e+01 1.914514155224e-10 -4.025001818020e-09 0.000000000000e+00
8.990000000000e+02 0.000000000000e+00 2.750000000000e+01 6.337418323784e-07 -4.818839487921e-09 0.000000000000e+00
9.000000000000e+02 0.000000000000e+00 2.750000000000e+01 6.353107153557e-07 -4.810439556294e-09 0.000000000000e+00
8.990000000000e+02 0.000000000000e+00 2.850000000000e+01 5.124765740556e-08 -5.660156954252e-09 0.000000000000e+00
9.000000000000e+02 0.000000000000e+00 2.850000000000e+01 5.137453521359e-08 -5.659189705816e-09 0.000000000000e+00
8.990000000000e+02 0.000000000000e+00 2.950000000000e+01 1.892885442935e-08 -5.746357882335e-09 0.000000000000e+00
9.000000000000e+02 0.000000000000e+00 2.950000000000e+01 1.897572266518e-08 -5.746152340044e-09 0.000000000000e+00
