VARIABLES = "X","Y","Z",VELOCITY1_X,VELOCITY1_Y,VELOCITY1_Z
ZONE T="0.000000000000e+00s", 
9.990000000000e+02 0.000000000000e+00 5.000000000000e-01 0.000000000000e+00 0.000000000000e+00 0.000000000000e+00
9.990000000000e+02 0.000000000000e+00 1.500000000000e+00 0.000000000000e+00 0.000000000000e+00 0.000000000000e+00
9.990000000000e+02 0.000000000000e+00 2.500000000000e+00 0.000000000000e+00 0.000000000000e+00 0.000000000000e+00
9.990000000000e+02 0.000000000000e+00 3.500000000000e+00 0.000000000000e+00 0.000000000000e+00 0.000000000000e+00
9.990000000000e+02 0.000000000000e+00 4.500000000000e+00 0.000000000000e+00 0.000000000000e+00 0.000000000000e+00
9.990000000000e+02 0.000000000000e+00 5.500000000000e+00 0.000000000000e+00 0.000000000000e+00 0.000000000000e+00
9.990000000000e+02 0.000000000000e+00 6.500000000000e+00 0.000000000000e+00 0.000000000000e+00 0.000000000000e+00
9.990000000000e+02 0.000000000000e+00 7.500000000000e+00 0.000000000000e+00 0.000000000000e+00 0.000000000000e+00
9.990000000000e+02 0.000000000000e+00 8.500000000000e+00 0.000000000000e+00 0.000000000000e+00 0.000000000000e+00
9.990000000000e+02 0.000000000000e+00 9.500000000000e+00 0.000000000000e+00 0.000000000000e+00 0.000000000000e+00
9.990000000000e+02 0.000000000000e+00 1.050000000000e+01 0.000000000000e+00 0.000000000000e+00 0.000000000000e+00
9.990000000000e+02 0.000000000000e+00 1.150000000000e+01 0.000000000000e+00 0.000000000000e+00 0.000000000000e+00
9.990000000000e+02 0.000000000000e+00 1.250000000000e+01 0.000000000000e+00 0.000000000000e+00 0.000000000000e+00
9.990000000000e+02 0.000000000000e+00 1.350000000000e+01 0.000000000000e+00 0.000000000000e+00 0.000000000000e+00
9.990000000000e+02 0.000000000000e+00 1.450000000000e+01 0.000000000000e+00 0.000000000000e+00 0.000000000000e+00
9.990000000000e+02 0.000000000000e+00 1.550000000000e+01 0.000000000000e+00 0.000000000000e+00 0.000000000000e+00
9.990000000000e+02 0.000000000000e+00 1.650000000000e+01 0.000000000000e+00 0.000000000000e+00 0.000000000000e+00
9.990000000000e+02 0.000000000000e+00 1.750000000000e+01 0.000000000000e+00 0.000000000000e+00 0.000000000000e+00
9.990000000000e+02 0.000000000000e+00 1.850000000000e+01 0.000000000000e+00 0.000000000000e+00 0.000000000000e+00
9.990000000000e+02 0.000000000000e+00 1.950000000000e+01 0.000000000000e+00 0.000000000000e+00 0.000000000000e+00
9.990000000000e+02 0.000000000000e+00 2.050000000000e+01 0.000000000000e+00 0.000000000000e+00 0.000000000000e+00
9.990000000000e+02 0.000000000000e+00 2.150000000000e+01 0.000000000000e+00 0.000000000000e+00 0.000000000000e+00
9.990000000000e+02 0.000000000000e+00 2.250000000000e+01 0.000000000000e+00 0.000000000000e+00 0.000000000000e+00
9.990000000000e+02 0.000000000000e+00 2.350000000000e+01 0.000000000000e+00 0.000000000000e+00 0.000000000000e+00
9.990000000000e+02 0.000000000000e+00 2.450000000000e+01 0.000000000000e+00 0.000000000000e+00 0.000000000000e+00
9.990000000000e+02 0.000000000000e+00 2.550000000000e+01 0.000000000000e+00 0.000000000000e+00 0.000000000000e+00
9.990000000000e+02 0.000000000000e+00 2.650000000000e+01 0.000000000000e+00 0.000000000000e+00 0.000000000000e+00
9.990000000000e+02 0.000000000000e+00 2.750000000000e+01 0.000000000000e+00 0.000000000000e+00 0.000000000000e+00
9.990000000000e+02 0.000000000000e+00 2.850000000000e+01 0.000000000000e+00 0.000000000000e+00 0.000000000000e+00
9.990000000000e+02 0.000000000000e+00 2.950000000000e+01 0.000000000000e+00 0.000000000000e+00 0.000000000000e+00
VARIABLES = "X","Y","Z",VELOCITY1_X,VELOCITY1_Y,VELOCITY1_Z
ZONE T="1.797693134862e+308s", 
9.990000000000e+02 0.000000000000e+00 5.000000000000e-01 1.357239904794e-06 -5.228871065116e-12 0.000000000000e+00
9.990000000000e+02 0.000000000000e+00 1.500000000000e+00 1.121495028851e-08 -1.050179413273e-11 0.000000000000e+00
9.990000000000e+02 0.000000000000e+00 2.500000000000e+00 3.217192652419e-07 -1.180994272639e-11 0.000000000000e+00
9.990000000000e+02 0.000000000000e+00 3.500000000000e+00 4.878663059708e-07 -1.499328806238e-11 0.000000000000e+00
9.990000000000e+02 0.000000000000e+00 4.500000000000e+00 4.535152423129e-08 -1.709122161608e-11 0.000000000000e+00
9.990000000000e+02 0.000000000000e+00 5.500000000000e+00 1.007678737592e-06 -2.126825635668e-11 0.000000000000e+00
9.990000000000e+02 0.000000000000e+00 6.500000000000e+00 2.129945623881e-08 -2.534996448334e-11 0.000000000000e+00
9.990000000000e+02 0.000000000000e+00 7.500000000000e+00 3.289620722704e-09 -2.545025351458e-11 0.000000000000e+00
9.990000000000e+02 0.000000000000e+00 8.500000000000e+00 2.415014278589e-08 -2.558080940928e-11 0.000000000000e+00
9.990000000000e+02 0.000000000000e+00 9.500000000000e+00 2.970126969384e-09 -2.571236951653e-11 0.000000000000e+00
9.990000000000e+02 0.000000000000e+00 1.050000000000e+01 1.517512892255e-08 -2.581431999436e-11 0.000000000000e+00
9.990000000000e+02 0.000000000000e+00 1.150000000000e+01 9.138524621806e-08 -2.642850161733e-11 0.000000000000e+00
9.990000000000e+02 0.000000000000e+00 1.250000000000e+01 1.585123099591e-09 -2.696678838911e-11 0.000000000000e+00
9.990000000000e+02 0.000000000000e+00 1.350000000000e+01 1.422232125813e-09 -2.698933012278e-11 0.000000000000e+00
9.990000000000e+02 0.000000000000e+00 1.450000000000e+01 4.251398353596e-09 -2.704197744129e-11 0.000000000000e+00
9.990000000000e+02 0.000000000000e+00 1.550000000000e+01 6.216081568686e-08 -2.769616817722e-11 0.000000000000e+00
9.990000000000e+02 0.000000000000e+00 1.650000000000e+01 6.567867985165e-08 -2.896152993620e-11 0.000000000000e+00
9.990000000000e+02 0.000000000000e+00 1.750000000000e+01 8.790550085929e-10 -2.962433099163e-11 0.000000000000e+00
9.990000000000e+02 0.000000000000e+00 1.850000000000e+01 7.671874036761e-08 -3.076398057787e-11 0.000000000000e+00
9.990000000000e+02 0.000000000000e+00 1.950000000000e+01 2.486820657715e-08 -3.226375625830e-11 0.000000000000e+00
9.990000000000e+02 0.000000000000e+00 2.050000000000e+01 3.564607907860e-09 -3.269302695232e-11 0.000000000000e+00
9.990000000000e+02 0.000000000000e+00 2.150000000000e+01 1.648321812902e-07 -3.564603682695e-11 0.000000000000e+00
9.990000000000e+02 0.000000000000e+00 2.250000000000e+01 2.938427055432e-08 -3.907337339212e-11 0.000000000000e+00
9.990000000000e+02 0.000000000000e+00 2.350000000000e+01 8.900761379858e-07 -5.620038549942e-11 0.000000000000e+00
9.990000000000e+02 0.000000000000e+00 2.450000000000e+01 1.689194074214e-08 -7.321689856774e-11 0.000000000000e+00
9.990000000000e+02 0.000000000000e+00 2.550000000000e+01 1.268007108294e-08 -7.415292351150e-11 0.000000000000e+00
9.990000000000e+02 0.000000000000e+00 2.650000000000e+01 2.206486573091e-10 -7.482924254242e-11 0.000000000000e+00
9.990000000000e+02 0.000000000000e+00 2.750000000000e+01 9.149494533290e-07 -1.132114430650e-09 0.000000000000e+00
9.990000000000e+02 0.000000000000e+00 2.850000000000e+01 7.440240890044e-08 -2.553369093722e-09 0.000000000000e+00
9.990000000000e+02 0.000000000000e+00 2.950000000000e+01 2.896715774711e-08 -4.277013129380e-09 0.000000000000e+00
