 TITLE = "Profiles along polylines"
 VARIABLES = "DIST" "HEAD" "VELOCITY_X1" "VELOCITY_Y1" "VELOCITY_Z1" 
 ZONE T="TIME=0.000000000000e+00"
0.000000000000e+00 3.000000000000e+01 0.000000000000e+00 0.000000000000e+00 0.000000000000e+00 
1.000000000000e+00 3.000000000000e+01 0.000000000000e+00 0.000000000000e+00 0.000000000000e+00 
2.000000000000e+00 3.000000000000e+01 0.000000000000e+00 0.000000000000e+00 0.000000000000e+00 
3.000000000000e+00 3.000000000000e+01 0.000000000000e+00 0.000000000000e+00 0.000000000000e+00 
4.000000000000e+00 3.000000000000e+01 0.000000000000e+00 0.000000000000e+00 0.000000000000e+00 
5.000000000000e+00 3.000000000000e+01 0.000000000000e+00 0.000000000000e+00 0.000000000000e+00 
6.000000000000e+00 3.000000000000e+01 0.000000000000e+00 0.000000000000e+00 0.000000000000e+00 
7.000000000000e+00 3.000000000000e+01 0.000000000000e+00 0.000000000000e+00 0.000000000000e+00 
8.000000000000e+00 3.000000000000e+01 0.000000000000e+00 0.000000000000e+00 0.000000000000e+00 
9.000000000000e+00 3.000000000000e+01 0.000000000000e+00 0.000000000000e+00 0.000000000000e+00 
1.000000000000e+01 3.000000000000e+01 0.000000000000e+00 0.000000000000e+00 0.000000000000e+00 
1.100000000000e+01 3.000000000000e+01 0.000000000000e+00 0.000000000000e+00 0.000000000000e+00 
1.200000000000e+01 3.000000000000e+01 0.000000000000e+00 0.000000000000e+00 0.000000000000e+00 
1.300000000000e+01 3.000000000000e+01 0.000000000000e+00 0.000000000000e+00 0.000000000000e+00 
1.400000000000e+01 3.000000000000e+01 0.000000000000e+00 0.000000000000e+00 0.000000000000e+00 
1.500000000000e+01 3.000000000000e+01 0.000000000000e+00 0.000000000000e+00 0.000000000000e+00 
1.600000000000e+01 3.000000000000e+01 0.000000000000e+00 0.000000000000e+00 0.000000000000e+00 
1.700000000000e+01 3.000000000000e+01 0.000000000000e+00 0.000000000000e+00 0.000000000000e+00 
1.800000000000e+01 3.000000000000e+01 0.000000000000e+00 0.000000000000e+00 0.000000000000e+00 
1.900000000000e+01 3.000000000000e+01 0.000000000000e+00 0.000000000000e+00 0.000000000000e+00 
2.000000000000e+01 3.000000000000e+01 0.000000000000e+00 0.000000000000e+00 0.000000000000e+00 
2.100000000000e+01 3.000000000000e+01 0.000000000000e+00 0.000000000000e+00 0.000000000000e+00 
2.200000000000e+01 3.000000000000e+01 0.000000000000e+00 0.000000000000e+00 0.000000000000e+00 
2.300000000000e+01 3.000000000000e+01 0.000000000000e+00 0.000000000000e+00 0.000000000000e+00 
2.400000000000e+01 3.000000000000e+01 0.000000000000e+00 0.000000000000e+00 0.000000000000e+00 
2.500000000000e+01 3.000000000000e+01 0.000000000000e+00 0.000000000000e+00 0.000000000000e+00 
2.600000000000e+01 3.000000000000e+01 0.000000000000e+00 0.000000000000e+00 0.000000000000e+00 
2.700000000000e+01 3.000000000000e+01 0.000000000000e+00 0.000000000000e+00 0.000000000000e+00 
2.800000000000e+01 3.000000000000e+01 0.000000000000e+00 0.000000000000e+00 0.000000000000e+00 
2.900000000000e+01 3.000000000000e+01 0.000000000000e+00 0.000000000000e+00 0.000000000000e+00 
3.000000000000e+01 3.000000000000e+01 0.000000000000e+00 0.000000000000e+00 0.000000000000e+00 
 TITLE = "Profiles along polylines"
 VARIABLES = "DIST" "HEAD" "VELOCITY_X1" "VELOCITY_Y1" "VELOCITY_Z1" 
 ZONE T="TIME=1.797693134862e+308"
0.000000000000e+00 3.040785133580e+01 6.193549844526e-09 -6.189385136208e-12 0.000000000000e+00 
1.000000000000e+00 3.040785188812e+01 1.376787723415e-07 -1.437746103468e-10 0.000000000000e+00 
2.000000000000e+00 3.040785246586e+01 1.748409606761e-07 -4.560480569605e-10 0.000000000000e+00 
3.000000000000e+00 3.040785679535e+01 4.685044889972e-08 -6.775466189643e-10 0.000000000000e+00 
4.000000000000e+00 3.040788716375e+01 1.070758928440e-08 -7.350568402761e-10 0.000000000000e+00 
5.000000000000e+00 3.040793723216e+01 1.685735577363e-08 -7.626024170493e-10 0.000000000000e+00 
6.000000000000e+00 3.040795413767e+01 1.744728524816e-08 -7.968811619977e-10 0.000000000000e+00 
7.000000000000e+00 3.040800195559e+01 1.721569633782e-08 -8.315178128376e-10 0.000000000000e+00 
8.000000000000e+00 3.040802070440e+01 1.968380914270e-08 -8.683897550184e-10 0.000000000000e+00 
9.000000000000e+00 3.040805491222e+01 2.850248483711e-07 -1.172898739097e-09 0.000000000000e+00 
1.000000000000e+01 3.040805636207e+01 2.809248866580e-07 -1.738422198186e-09 0.000000000000e+00 
1.100000000000e+01 3.040823786535e+01 3.979128975563e-09 -2.023081091742e-09 0.000000000000e+00 
1.200000000000e+01 3.040885688385e+01 2.553249512822e-08 -2.052576362897e-09 0.000000000000e+00 
1.300000000000e+01 3.040888020271e+01 3.994565241688e-07 -2.477338982398e-09 0.000000000000e+00 
1.400000000000e+01 3.040888232354e+01 4.635837689790e-07 -3.339833748734e-09 0.000000000000e+00 
1.500000000000e+01 3.040889416506e+01 1.056210795689e-07 -3.908633850732e-09 0.000000000000e+00 
1.600000000000e+01 3.040895993711e+01 1.724133632984e-08 -4.031414016124e-09 0.000000000000e+00 
1.700000000000e+01 3.041194323463e+01 1.184050866925e-09 -4.049829359300e-09 0.000000000000e+00 
1.800000000000e+01 3.041332716785e+01 2.178559145506e-07 -4.268891744882e-09 0.000000000000e+00 
1.900000000000e+01 3.041333288114e+01 2.360169461890e-07 -4.722763689558e-09 0.000000000000e+00 
2.000000000000e+01 3.041340512670e+01 2.484270865591e-08 -4.983598969547e-09 0.000000000000e+00 
2.100000000000e+01 3.041364083449e+01 5.923589517276e-09 -5.014364789365e-09 0.000000000000e+00 
2.200000000000e+01 3.044090105439e+01 4.150051091365e-09 -5.024452290571e-09 0.000000000000e+00 
2.300000000000e+01 3.044124027318e+01 5.199131747979e-09 -5.033831267592e-09 0.000000000000e+00 
2.400000000000e+01 3.044250701814e+01 1.979213411062e-09 -5.041032601228e-09 0.000000000000e+00 
2.500000000000e+01 3.044409312918e+01 1.686057237486e-08 -5.059939357166e-09 0.000000000000e+00 
2.600000000000e+01 3.044418097667e+01 2.213039666608e-08 -5.099067919340e-09 0.000000000000e+00 
2.700000000000e+01 3.044441129005e+01 6.373880487999e-09 -5.127671793364e-09 0.000000000000e+00 
2.800000000000e+01 3.045072622164e+01 1.579115037794e-07 -5.292647419621e-09 0.000000000000e+00 
2.900000000000e+01 3.045073578237e+01 1.581131226610e-07 -5.609990345910e-09 0.000000000000e+00 
3.000000000000e+01 3.045447690544e+01 8.529073093583e-10 -5.768753891916e-09 0.000000000000e+00 
