VARIABLES = "X","Y","Z",VELOCITY1_X,VELOCITY1_Y,VELOCITY1_Z
ZONE T="0.000000000000e+00s", 
4.900000000000e+01 0.000000000000e+00 5.000000000000e-01 0.000000000000e+00 0.000000000000e+00 0.000000000000e+00
5.000000000000e+01 0.000000000000e+00 5.000000000000e-01 0.000000000000e+00 0.000000000000e+00 0.000000000000e+00
4.900000000000e+01 0.000000000000e+00 1.500000000000e+00 0.000000000000e+00 0.000000000000e+00 0.000000000000e+00
5.000000000000e+01 0.000000000000e+00 1.500000000000e+00 0.000000000000e+00 0.000000000000e+00 0.000000000000e+00
4.900000000000e+01 0.000000000000e+00 2.500000000000e+00 0.000000000000e+00 0.000000000000e+00 0.000000000000e+00
5.000000000000e+01 0.000000000000e+00 2.500000000000e+00 0.000000000000e+00 0.000000000000e+00 0.000000000000e+00
4.900000000000e+01 0.000000000000e+00 3.500000000000e+00 0.000000000000e+00 0.000000000000e+00 0.000000000000e+00
5.000000000000e+01 0.000000000000e+00 3.500000000000e+00 0.000000000000e+00 0.000000000000e+00 0.000000000000e+00
4.900000000000e+01 0.000000000000e+00 4.500000000000e+00 0.000000000000e+00 0.000000000000e+00 0.000000000000e+00
5.000000000000e+01 0.000000000000e+00 4.500000000000e+00 0.000000000000e+00 0.000000000000e+00 0.000000000000e+00
4.900000000000e+01 0.000000000000e+00 5.500000000000e+00 0.000000000000e+00 0.000000000000e+00 0.000000000000e+00
5.000000000000e+01 0.000000000000e+00 5.500000000000e+00 0.000000000000e+00 0.000000000000e+00 0.000000000000e+00
4.900000000000e+01 0.000000000000e+00 6.500000000000e+00 0.000000000000e+00 0.000000000000e+00 0.000000000000e+00
5.000000000000e+01 0.000000000000e+00 6.500000000000e+00 0.000000000000e+00 0.000000000000e+00 0.000000000000e+00
4.900000000000e+01 0.000000000000e+00 7.500000000000e+00 0.000000000000e+00 0.000000000000e+00 0.000000000000e+00
5.000000000000e+01 0.000000000000e+00 7.500000000000e+00 0.000000000000e+00 0.000000000000e+00 0.000000000000e+00
4.900000000000e+01 0.000000000000e+00 8.500000000000e+00 0.000000000000e+00 0.000000000000e+00 0.000000000000e+00
5.000000000000e+01 0.000000000000e+00 8.500000000000e+00 0.000000000000e+00 0.000000000000e+00 0.000000000000e+00
4.900000000000e+01 0.000000000000e+00 9.500000000000e+00 0.000000000000e+00 0.000000000000e+00 0.000000000000e+00
5.000000000000e+01 0.000000000000e+00 9.500000000000e+00 0.000000000000e+00 0.000000000000e+00 0.000000000000e+00
4.900000000000e+01 0.000000000000e+00 1.050000000000e+01 0.000000000000e+00 0.000000000000e+00 0.000000000000e+00
5.000000000000e+01 0.000000000000e+00 1.050000000000e+01 0.000000000000e+00 0.000000000000e+00 0.000000000000e+00
4.900000000000e+01 0.000000000000e+00 1.150000000000e+01 0.000000000000e+00 0.000000000000e+00 0.000000000000e+00
5.000000000000e+01 0.000000000000e+00 1.150000000000e+01 0.000000000000e+00 0.000000000000e+00 0.000000000000e+00
4.900000000000e+01 0.000000000000e+00 1.250000000000e+01 0.000000000000e+00 0.000000000000e+00 0.000000000000e+00
5.000000000000e+01 0.000000000000e+00 1.250000000000e+01 0.000000000000e+00 0.000000000000e+00 0.000000000000e+00
4.900000000000e+01 0.000000000000e+00 1.350000000000e+01 0.000000000000e+00 0.000000000000e+00 0.000000000000e+00
5.000000000000e+01 0.000000000000e+00 1.350000000000e+01 0.000000000000e+00 0.000000000000e+00 0.000000000000e+00
4.900000000000e+01 0.000000000000e+00 1.450000000000e+01 0.000000000000e+00 0.000000000000e+00 0.000000000000e+00
5.000000000000e+01 0.000000000000e+00 1.450000000000e+01 0.000000000000e+00 0.000000000000e+00 0.000000000000e+00
4.900000000000e+01 0.000000000000e+00 1.550000000000e+01 0.000000000000e+00 0.000000000000e+00 0.000000000000e+00
5.000000000000e+01 0.000000000000e+00 1.550000000000e+01 0.000000000000e+00 0.000000000000e+00 0.000000000000e+00
4.900000000000e+01 0.000000000000e+00 1.650000000000e+01 0.000000000000e+00 0.000000000000e+00 0.000000000000e+00
5.000000000000e+01 0.000000000000e+00 1.650000000000e+01 0.000000000000e+00 0.000000000000e+00 0.000000000000e+00
4.900000000000e+01 0.000000000000e+00 1.750000000000e+01 0.000000000000e+00 0.000000000000e+00 0.000000000000e+00
5.000000000000e+01 0.000000000000e+00 1.750000000000e+01 0.000000000000e+00 0.000000000000e+00 0.000000000000e+00
4.900000000000e+01 0.000000000000e+00 1.850000000000e+01 0.000000000000e+00 0.000000000000e+00 0.000000000000e+00
5.000000000000e+01 0.000000000000e+00 1.850000000000e+01 0.000000000000e+00 0.000000000000e+00 0.000000000000e+00
4.900000000000e+01 0.000000000000e+00 1.950000000000e+01 0.000000000000e+00 0.000000000000e+00 0.000000000000e+00
5.000000000000e+01 0.000000000000e+00 1.950000000000e+01 0.000000000000e+00 0.000000000000e+00 0.000000000000e+00
4.900000000000e+01 0.000000000000e+00 2.050000000000e+01 0.000000000000e+00 0.000000000000e+00 0.000000000000e+00
5.000000000000e+01 0.000000000000e+00 2.050000000000e+01 0.000000000000e+00 0.000000000000e+00 0.000000000000e+00
4.900000000000e+01 0.000000000000e+00 2.150000000000e+01 0.000000000000e+00 0.000000000000e+00 0.000000000000e+00
5.000000000000e+01 0.000000000000e+00 2.150000000000e+01 0.000000000000e+00 0.000000000000e+00 0.000000000000e+00
4.900000000000e+01 0.000000000000e+00 2.250000000000e+01 0.000000000000e+00 0.000000000000e+00 0.000000000000e+00
5.000000000000e+01 0.000000000000e+00 2.250000000000e+01 0.000000000000e+00 0.000000000000e+00 0.000000000000e+00
4.900000000000e+01 0.000000000000e+00 2.350000000000e+01 0.000000000000e+00 0.000000000000e+00 0.000000000000e+00
5.000000000000e+01 0.000000000000e+00 2.350000000000e+01 0.000000000000e+00 0.000000000000e+00 0.000000000000e+00
4.900000000000e+01 0.000000000000e+00 2.450000000000e+01 0.000000000000e+00 0.000000000000e+00 0.000000000000e+00
5.000000000000e+01 0.000000000000e+00 2.450000000000e+01 0.000000000000e+00 0.000000000000e+00 0.000000000000e+00
4.900000000000e+01 0.000000000000e+00 2.550000000000e+01 0.000000000000e+00 0.000000000000e+00 0.000000000000e+00
5.000000000000e+01 0.000000000000e+00 2.550000000000e+01 0.000000000000e+00 0.000000000000e+00 0.000000000000e+00
4.900000000000e+01 0.000000000000e+00 2.650000000000e+01 0.000000000000e+00 0.000000000000e+00 0.000000000000e+00
5.000000000000e+01 0.000000000000e+00 2.650000000000e+01 0.000000000000e+00 0.000000000000e+00 0.000000000000e+00
4.900000000000e+01 0.000000000000e+00 2.750000000000e+01 0.000000000000e+00 0.000000000000e+00 0.000000000000e+00
5.000000000000e+01 0.000000000000e+00 2.750000000000e+01 0.000000000000e+00 0.000000000000e+00 0.000000000000e+00
4.900000000000e+01 0.000000000000e+00 2.850000000000e+01 0.000000000000e+00 0.000000000000e+00 0.000000000000e+00
5.000000000000e+01 0.000000000000e+00 2.850000000000e+01 0.000000000000e+00 0.000000000000e+00 0.000000000000e+00
4.900000000000e+01 0.000000000000e+00 2.950000000000e+01 0.000000000000e+00 0.000000000000e+00 0.000000000000e+00
5.000000000000e+01 0.000000000000e+00 2.950000000000e+01 0.000000000000e+00 0.000000000000e+00 0.000000000000e+00
VARIABLES = "X","Y","Z",VELOCITY1_X,VELOCITY1_Y,VELOCITY1_Z
ZONE T="1.797693134862e+308s", 
4.900000000000e+01 0.000000000000e+00 5.000000000000e-01 6.133384708258e-10 -6.195039681932e-12 0.000000000000e+00
5.000000000000e+01 0.000000000000e+00 5.000000000000e-01 6.257288684444e-10 -6.195032555525e-12 0.000000000000e+00
4.900000000000e+01 0.000000000000e+00 1.500000000000e+00 2.665492920626e-08 -2.816179118699e-10 0.000000000000e+00
5.000000000000e+01 0.000000000000e+00 1.500000000000e+00 2.719340053122e-08 -2.816175779424e-10 0.000000000000e+00
4.900000000000e+01 0.000000000000e+00 2.500000000000e+00 7.973575848503e-09 -6.313515153892e-10 0.000000000000e+00
5.000000000000e+01 0.000000000000e+00 2.500000000000e+00 8.134654574180e-09 -6.313514165330e-10 0.000000000000e+00
4.900000000000e+01 0.000000000000e+00 3.500000000000e+00 1.305490358405e-09 -7.250672063280e-10 0.000000000000e+00
5.000000000000e+01 0.000000000000e+00 3.500000000000e+00 1.331863303933e-09 -7.250672087007e-10 0.000000000000e+00
4.900000000000e+01 0.000000000000e+00 4.500000000000e+00 8.152226331330e-10 -7.464870202360e-10 0.000000000000e+00
5.000000000000e+01 0.000000000000e+00 4.500000000000e+00 8.316914013978e-10 -7.464870138860e-10 0.000000000000e+00
4.900000000000e+01 0.000000000000e+00 5.500000000000e+00 2.523490505699e-09 -7.802092562567e-10 0.000000000000e+00
5.000000000000e+01 0.000000000000e+00 5.500000000000e+00 2.574468937597e-09 -7.802092280828e-10 0.000000000000e+00
4.900000000000e+01 0.000000000000e+00 6.500000000000e+00 9.320607142733e-10 -8.151095772539e-10 0.000000000000e+00
5.000000000000e+01 0.000000000000e+00 6.500000000000e+00 9.508897886156e-10 -8.151095621892e-10 0.000000000000e+00
4.900000000000e+01 0.000000000000e+00 7.500000000000e+00 2.477618791204e-09 -8.495482741385e-10 0.000000000000e+00
5.000000000000e+01 0.000000000000e+00 7.500000000000e+00 2.527670545237e-09 -8.495482442251e-10 0.000000000000e+00
4.900000000000e+01 0.000000000000e+00 8.500000000000e+00 1.420884566454e-09 -8.889226460284e-10 0.000000000000e+00
5.000000000000e+01 0.000000000000e+00 8.500000000000e+00 1.449588650782e-09 -8.889226131942e-10 0.000000000000e+00
4.900000000000e+01 0.000000000000e+00 9.500000000000e+00 5.503004981183e-08 -1.459104943123e-09 0.000000000000e+00
5.000000000000e+01 0.000000000000e+00 9.500000000000e+00 5.614174273840e-08 -1.459104403744e-09 0.000000000000e+00
4.900000000000e+01 0.000000000000e+00 1.050000000000e+01 6.088598704120e-10 -2.021029081009e-09 0.000000000000e+00
5.000000000000e+01 0.000000000000e+00 1.050000000000e+01 6.211597916702e-10 -2.021028957662e-09 0.000000000000e+00
4.900000000000e+01 0.000000000000e+00 1.150000000000e+01 1.792278049418e-10 -2.028988618168e-09 0.000000000000e+00
5.000000000000e+01 0.000000000000e+00 1.150000000000e+01 1.828484865552e-10 -2.028988498584e-09 0.000000000000e+00
4.900000000000e+01 0.000000000000e+00 1.250000000000e+01 4.877546615335e-09 -2.080064506956e-09 0.000000000000e+00
5.000000000000e+01 0.000000000000e+00 1.250000000000e+01 4.976080642485e-09 -2.080064342005e-09 0.000000000000e+00
4.900000000000e+01 0.000000000000e+00 1.350000000000e+01 7.423577487343e-08 -2.879141082757e-09 0.000000000000e+00
5.000000000000e+01 0.000000000000e+00 1.350000000000e+01 7.573545299340e-08 -2.879140335858e-09 0.000000000000e+00
4.900000000000e+01 0.000000000000e+00 1.450000000000e+01 1.757809693280e-08 -3.806413936263e-09 0.000000000000e+00
5.000000000000e+01 0.000000000000e+00 1.450000000000e+01 1.793320183380e-08 -3.806413746856e-09 0.000000000000e+00
4.900000000000e+01 0.000000000000e+00 1.550000000000e+01 3.340404627372e-09 -4.017683727016e-09 0.000000000000e+00
5.000000000000e+01 0.000000000000e+00 1.550000000000e+01 3.407885988730e-09 -4.017683614915e-09 0.000000000000e+00
4.900000000000e+01 0.000000000000e+00 1.650000000000e+01 7.427737951191e-11 -4.052172540317e-09 0.000000000000e+00
5.000000000000e+01 0.000000000000e+00 1.650000000000e+01 7.577789811459e-11 -4.052172411831e-09 0.000000000000e+00
4.900000000000e+01 0.000000000000e+00 1.750000000000e+01 1.602111121918e-10 -4.054540973282e-09 0.000000000000e+00
5.000000000000e+01 0.000000000000e+00 1.750000000000e+01 1.634476280299e-10 -4.054540842353e-09 0.000000000000e+00
4.900000000000e+01 0.000000000000e+00 1.850000000000e+01 4.298253008427e-08 -4.490301262872e-09 0.000000000000e+00
5.000000000000e+01 0.000000000000e+00 1.850000000000e+01 4.385084485469e-08 -4.490300685338e-09 0.000000000000e+00
4.900000000000e+01 0.000000000000e+00 1.950000000000e+01 3.756696256640e-09 -4.962323526872e-09 0.000000000000e+00
5.000000000000e+01 0.000000000000e+00 1.950000000000e+01 3.832587441213e-09 -4.962323352275e-09 0.000000000000e+00
4.900000000000e+01 0.000000000000e+00 2.050000000000e+01 1.162982170878e-09 -5.012009566802e-09 0.000000000000e+00
5.000000000000e+01 0.000000000000e+00 2.050000000000e+01 1.186476241312e-09 -5.012009433034e-09 0.000000000000e+00
4.900000000000e+01 0.000000000000e+00 2.150000000000e+01 1.007962776553e-11 -5.023857501832e-09 0.000000000000e+00
5.000000000000e+01 0.000000000000e+00 2.150000000000e+01 1.028325206929e-11 -5.023857366767e-09 0.000000000000e+00
4.900000000000e+01 0.000000000000e+00 2.250000000000e+01 8.113698463196e-10 -5.032154193604e-09 0.000000000000e+00
5.000000000000e+01 0.000000000000e+00 2.250000000000e+01 8.277607781865e-10 -5.032154057936e-09 0.000000000000e+00
4.900000000000e+01 0.000000000000e+00 2.350000000000e+01 2.177256536783e-10 -5.042545509644e-09 0.000000000000e+00
5.000000000000e+01 0.000000000000e+00 2.350000000000e+01 2.221240496909e-10 -5.042545388783e-09 0.000000000000e+00
4.900000000000e+01 0.000000000000e+00 2.450000000000e+01 1.740233845643e-10 -5.046501587738e-09 0.000000000000e+00
5.000000000000e+01 0.000000000000e+00 2.450000000000e+01 1.775389278272e-10 -5.046501466354e-09 0.000000000000e+00
4.900000000000e+01 0.000000000000e+00 2.550000000000e+01 3.163127994347e-09 -5.080206545250e-09 0.000000000000e+00
5.000000000000e+01 0.000000000000e+00 2.550000000000e+01 3.227028151009e-09 -5.080206445671e-09 0.000000000000e+00
4.900000000000e+01 0.000000000000e+00 2.650000000000e+01 1.217054152206e-09 -5.124435714102e-09 0.000000000000e+00
5.000000000000e+01 0.000000000000e+00 2.650000000000e+01 1.241640563273e-09 -5.124435617645e-09 0.000000000000e+00
4.900000000000e+01 0.000000000000e+00 2.750000000000e+01 4.449836555842e-11 -5.137174145135e-09 0.000000000000e+00
5.000000000000e+01 0.000000000000e+00 2.750000000000e+01 4.539730376841e-11 -5.137174026047e-09 0.000000000000e+00
4.900000000000e+01 0.000000000000e+00 2.850000000000e+01 3.120723575373e-08 -5.452816985171e-09 0.000000000000e+00
5.000000000000e+01 0.000000000000e+00 2.850000000000e+01 3.183767481128e-08 -5.452815956143e-09 0.000000000000e+00
4.900000000000e+01 0.000000000000e+00 2.950000000000e+01 8.439799870412e-11 -5.768758151455e-09 0.000000000000e+00
5.000000000000e+01 0.000000000000e+00 2.950000000000e+01 8.610298134872e-11 -5.768758145412e-09 0.000000000000e+00
