VARIABLES = "X","Y","Z",VELOCITY1_X,VELOCITY1_Y,VELOCITY1_Z
ZONE T="0.000000000000e+00s", 
9.990000000000e+02 0.000000000000e+00 5.000000000000e-01 0.000000000000e+00 0.000000000000e+00 0.000000000000e+00
9.990000000000e+02 0.000000000000e+00 1.500000000000e+00 0.000000000000e+00 0.000000000000e+00 0.000000000000e+00
9.990000000000e+02 0.000000000000e+00 2.500000000000e+00 0.000000000000e+00 0.000000000000e+00 0.000000000000e+00
9.990000000000e+02 0.000000000000e+00 3.500000000000e+00 0.000000000000e+00 0.000000000000e+00 0.000000000000e+00
9.990000000000e+02 0.000000000000e+00 4.500000000000e+00 0.000000000000e+00 0.000000000000e+00 0.000000000000e+00
9.990000000000e+02 0.000000000000e+00 5.500000000000e+00 0.000000000000e+00 0.000000000000e+00 0.000000000000e+00
9.990000000000e+02 0.000000000000e+00 6.500000000000e+00 0.000000000000e+00 0.000000000000e+00 0.000000000000e+00
9.990000000000e+02 0.000000000000e+00 7.500000000000e+00 0.000000000000e+00 0.000000000000e+00 0.000000000000e+00
9.990000000000e+02 0.000000000000e+00 8.500000000000e+00 0.000000000000e+00 0.000000000000e+00 0.000000000000e+00
9.990000000000e+02 0.000000000000e+00 9.500000000000e+00 0.000000000000e+00 0.000000000000e+00 0.000000000000e+00
9.990000000000e+02 0.000000000000e+00 1.050000000000e+01 0.000000000000e+00 0.000000000000e+00 0.000000000000e+00
9.990000000000e+02 0.000000000000e+00 1.150000000000e+01 0.000000000000e+00 0.000000000000e+00 0.000000000000e+00
9.990000000000e+02 0.000000000000e+00 1.250000000000e+01 0.000000000000e+00 0.000000000000e+00 0.000000000000e+00
9.990000000000e+02 0.000000000000e+00 1.350000000000e+01 0.000000000000e+00 0.000000000000e+00 0.000000000000e+00
9.990000000000e+02 0.000000000000e+00 1.450000000000e+01 0.000000000000e+00 0.000000000000e+00 0.000000000000e+00
9.990000000000e+02 0.000000000000e+00 1.550000000000e+01 0.000000000000e+00 0.000000000000e+00 0.000000000000e+00
9.990000000000e+02 0.000000000000e+00 1.650000000000e+01 0.000000000000e+00 0.000000000000e+00 0.000000000000e+00
9.990000000000e+02 0.000000000000e+00 1.750000000000e+01 0.000000000000e+00 0.000000000000e+00 0.000000000000e+00
9.990000000000e+02 0.000000000000e+00 1.850000000000e+01 0.000000000000e+00 0.000000000000e+00 0.000000000000e+00
9.990000000000e+02 0.000000000000e+00 1.950000000000e+01 0.000000000000e+00 0.000000000000e+00 0.000000000000e+00
9.990000000000e+02 0.000000000000e+00 2.050000000000e+01 0.000000000000e+00 0.000000000000e+00 0.000000000000e+00
9.990000000000e+02 0.000000000000e+00 2.150000000000e+01 0.000000000000e+00 0.000000000000e+00 0.000000000000e+00
9.990000000000e+02 0.000000000000e+00 2.250000000000e+01 0.000000000000e+00 0.000000000000e+00 0.000000000000e+00
9.990000000000e+02 0.000000000000e+00 2.350000000000e+01 0.000000000000e+00 0.000000000000e+00 0.000000000000e+00
9.990000000000e+02 0.000000000000e+00 2.450000000000e+01 0.000000000000e+00 0.000000000000e+00 0.000000000000e+00
9.990000000000e+02 0.000000000000e+00 2.550000000000e+01 0.000000000000e+00 0.000000000000e+00 0.000000000000e+00
9.990000000000e+02 0.000000000000e+00 2.650000000000e+01 0.000000000000e+00 0.000000000000e+00 0.000000000000e+00
9.990000000000e+02 0.000000000000e+00 2.750000000000e+01 0.000000000000e+00 0.000000000000e+00 0.000000000000e+00
9.990000000000e+02 0.000000000000e+00 2.850000000000e+01 0.000000000000e+00 0.000000000000e+00 0.000000000000e+00
9.990000000000e+02 0.000000000000e+00 2.950000000000e+01 0.000000000000e+00 0.000000000000e+00 0.000000000000e+00
VARIABLES = "X","Y","Z",VELOCITY1_X,VELOCITY1_Y,VELOCITY1_Z
ZONE T="1.797693134862e+308s", 
9.990000000000e+02 0.000000000000e+00 5.000000000000e-01 1.136951321511e-08 -4.938958085623e-14 0.000000000000e+00
9.990000000000e+02 0.000000000000e+00 1.500000000000e+00 4.941073683192e-07 -2.245430652686e-12 0.000000000000e+00
9.990000000000e+02 0.000000000000e+00 2.500000000000e+00 1.478089642636e-07 -5.034425133898e-12 0.000000000000e+00
9.990000000000e+02 0.000000000000e+00 3.500000000000e+00 2.420188983109e-08 -5.782400272961e-12 0.000000000000e+00
9.990000000000e+02 0.000000000000e+00 4.500000000000e+00 1.511740743093e-08 -5.954318939122e-12 0.000000000000e+00
9.990000000000e+02 0.000000000000e+00 5.500000000000e+00 4.681457892285e-08 -6.227496172620e-12 0.000000000000e+00
9.990000000000e+02 0.000000000000e+00 6.500000000000e+00 1.729426785293e-08 -6.511110957573e-12 0.000000000000e+00
9.990000000000e+02 0.000000000000e+00 7.500000000000e+00 4.599007125259e-08 -6.793448446795e-12 0.000000000000e+00
9.990000000000e+02 0.000000000000e+00 8.500000000000e+00 2.637955216711e-08 -7.117373442204e-12 0.000000000000e+00
9.990000000000e+02 0.000000000000e+00 9.500000000000e+00 1.021942161017e-06 -1.183781172798e-11 0.000000000000e+00
9.990000000000e+02 0.000000000000e+00 1.050000000000e+01 1.130913079233e-08 -1.649146933311e-11 0.000000000000e+00
9.990000000000e+02 0.000000000000e+00 1.150000000000e+01 3.335983632798e-09 -1.655984558955e-11 0.000000000000e+00
9.990000000000e+02 0.000000000000e+00 1.250000000000e+01 9.123899924249e-08 -1.705240146524e-11 0.000000000000e+00
9.990000000000e+02 0.000000000000e+00 1.350000000000e+01 1.388911144981e-06 -2.479115749470e-11 0.000000000000e+00
9.990000000000e+02 0.000000000000e+00 1.450000000000e+01 3.288868311833e-07 -3.377658715285e-11 0.000000000000e+00
9.990000000000e+02 0.000000000000e+00 1.550000000000e+01 6.251006061640e-08 -3.583067833951e-11 0.000000000000e+00
9.990000000000e+02 0.000000000000e+00 1.650000000000e+01 1.395367275785e-09 -3.617230906452e-11 0.000000000000e+00
9.990000000000e+02 0.000000000000e+00 1.750000000000e+01 3.092325728806e-09 -3.621558280464e-11 0.000000000000e+00
9.990000000000e+02 0.000000000000e+00 1.850000000000e+01 8.393516242894e-07 -4.587927609886e-11 0.000000000000e+00
9.990000000000e+02 0.000000000000e+00 1.950000000000e+01 7.337095186316e-08 -5.636773901338e-11 0.000000000000e+00
9.990000000000e+02 0.000000000000e+00 2.050000000000e+01 2.273862334921e-08 -5.751139384527e-11 0.000000000000e+00
9.990000000000e+02 0.000000000000e+00 2.150000000000e+01 2.049186242462e-10 -5.781636285218e-11 0.000000000000e+00
9.990000000000e+02 0.000000000000e+00 2.250000000000e+01 2.115657746668e-08 -6.069975849668e-11 0.000000000000e+00
9.990000000000e+02 0.000000000000e+00 2.350000000000e+01 5.701691843674e-09 -6.439372746040e-11 0.000000000000e+00
9.990000000000e+02 0.000000000000e+00 2.450000000000e+01 4.617086550014e-09 -6.599334267194e-11 0.000000000000e+00
9.990000000000e+02 0.000000000000e+00 2.550000000000e+01 8.513217472769e-08 -8.221402877940e-11 0.000000000000e+00
9.990000000000e+02 0.000000000000e+00 2.650000000000e+01 3.280057851496e-08 -1.043040711921e-10 0.000000000000e+00
9.990000000000e+02 0.000000000000e+00 2.750000000000e+01 1.217312330022e-09 -1.120544853193e-10 0.000000000000e+00
9.990000000000e+02 0.000000000000e+00 2.850000000000e+01 9.325149650313e-07 -1.703137901241e-09 0.000000000000e+00
9.990000000000e+02 0.000000000000e+00 2.950000000000e+01 3.093640104297e-09 -4.464818648398e-09 0.000000000000e+00
