VARIABLES = "Time","Value"
ZONE T=obs_00900
0.000000000000e+00 0.000000000000e+00
1.797693134862e+308 5.189760145164e-06
