VARIABLES = "X","Y","Z",VELOCITY1_X,VELOCITY1_Y,VELOCITY1_Z
ZONE T="0.000000000000e+00s", 
7.490000000000e+02 0.000000000000e+00 5.000000000000e-01 0.000000000000e+00 0.000000000000e+00 0.000000000000e+00
7.500000000000e+02 0.000000000000e+00 5.000000000000e-01 0.000000000000e+00 0.000000000000e+00 0.000000000000e+00
7.490000000000e+02 0.000000000000e+00 1.500000000000e+00 0.000000000000e+00 0.000000000000e+00 0.000000000000e+00
7.500000000000e+02 0.000000000000e+00 1.500000000000e+00 0.000000000000e+00 0.000000000000e+00 0.000000000000e+00
7.490000000000e+02 0.000000000000e+00 2.500000000000e+00 0.000000000000e+00 0.000000000000e+00 0.000000000000e+00
7.500000000000e+02 0.000000000000e+00 2.500000000000e+00 0.000000000000e+00 0.000000000000e+00 0.000000000000e+00
7.490000000000e+02 0.000000000000e+00 3.500000000000e+00 0.000000000000e+00 0.000000000000e+00 0.000000000000e+00
7.500000000000e+02 0.000000000000e+00 3.500000000000e+00 0.000000000000e+00 0.000000000000e+00 0.000000000000e+00
7.490000000000e+02 0.000000000000e+00 4.500000000000e+00 0.000000000000e+00 0.000000000000e+00 0.000000000000e+00
7.500000000000e+02 0.000000000000e+00 4.500000000000e+00 0.000000000000e+00 0.000000000000e+00 0.000000000000e+00
7.490000000000e+02 0.000000000000e+00 5.500000000000e+00 0.000000000000e+00 0.000000000000e+00 0.000000000000e+00
7.500000000000e+02 0.000000000000e+00 5.500000000000e+00 0.000000000000e+00 0.000000000000e+00 0.000000000000e+00
7.490000000000e+02 0.000000000000e+00 6.500000000000e+00 0.000000000000e+00 0.000000000000e+00 0.000000000000e+00
7.500000000000e+02 0.000000000000e+00 6.500000000000e+00 0.000000000000e+00 0.000000000000e+00 0.000000000000e+00
7.490000000000e+02 0.000000000000e+00 7.500000000000e+00 0.000000000000e+00 0.000000000000e+00 0.000000000000e+00
7.500000000000e+02 0.000000000000e+00 7.500000000000e+00 0.000000000000e+00 0.000000000000e+00 0.000000000000e+00
7.490000000000e+02 0.000000000000e+00 8.500000000000e+00 0.000000000000e+00 0.000000000000e+00 0.000000000000e+00
7.500000000000e+02 0.000000000000e+00 8.500000000000e+00 0.000000000000e+00 0.000000000000e+00 0.000000000000e+00
7.490000000000e+02 0.000000000000e+00 9.500000000000e+00 0.000000000000e+00 0.000000000000e+00 0.000000000000e+00
7.500000000000e+02 0.000000000000e+00 9.500000000000e+00 0.000000000000e+00 0.000000000000e+00 0.000000000000e+00
7.490000000000e+02 0.000000000000e+00 1.050000000000e+01 0.000000000000e+00 0.000000000000e+00 0.000000000000e+00
7.500000000000e+02 0.000000000000e+00 1.050000000000e+01 0.000000000000e+00 0.000000000000e+00 0.000000000000e+00
7.490000000000e+02 0.000000000000e+00 1.150000000000e+01 0.000000000000e+00 0.000000000000e+00 0.000000000000e+00
7.500000000000e+02 0.000000000000e+00 1.150000000000e+01 0.000000000000e+00 0.000000000000e+00 0.000000000000e+00
7.490000000000e+02 0.000000000000e+00 1.250000000000e+01 0.000000000000e+00 0.000000000000e+00 0.000000000000e+00
7.500000000000e+02 0.000000000000e+00 1.250000000000e+01 0.000000000000e+00 0.000000000000e+00 0.000000000000e+00
7.490000000000e+02 0.000000000000e+00 1.350000000000e+01 0.000000000000e+00 0.000000000000e+00 0.000000000000e+00
7.500000000000e+02 0.000000000000e+00 1.350000000000e+01 0.000000000000e+00 0.000000000000e+00 0.000000000000e+00
7.490000000000e+02 0.000000000000e+00 1.450000000000e+01 0.000000000000e+00 0.000000000000e+00 0.000000000000e+00
7.500000000000e+02 0.000000000000e+00 1.450000000000e+01 0.000000000000e+00 0.000000000000e+00 0.000000000000e+00
7.490000000000e+02 0.000000000000e+00 1.550000000000e+01 0.000000000000e+00 0.000000000000e+00 0.000000000000e+00
7.500000000000e+02 0.000000000000e+00 1.550000000000e+01 0.000000000000e+00 0.000000000000e+00 0.000000000000e+00
7.490000000000e+02 0.000000000000e+00 1.650000000000e+01 0.000000000000e+00 0.000000000000e+00 0.000000000000e+00
7.500000000000e+02 0.000000000000e+00 1.650000000000e+01 0.000000000000e+00 0.000000000000e+00 0.000000000000e+00
7.490000000000e+02 0.000000000000e+00 1.750000000000e+01 0.000000000000e+00 0.000000000000e+00 0.000000000000e+00
7.500000000000e+02 0.000000000000e+00 1.750000000000e+01 0.000000000000e+00 0.000000000000e+00 0.000000000000e+00
7.490000000000e+02 0.000000000000e+00 1.850000000000e+01 0.000000000000e+00 0.000000000000e+00 0.000000000000e+00
7.500000000000e+02 0.000000000000e+00 1.850000000000e+01 0.000000000000e+00 0.000000000000e+00 0.000000000000e+00
7.490000000000e+02 0.000000000000e+00 1.950000000000e+01 0.000000000000e+00 0.000000000000e+00 0.000000000000e+00
7.500000000000e+02 0.000000000000e+00 1.950000000000e+01 0.000000000000e+00 0.000000000000e+00 0.000000000000e+00
7.490000000000e+02 0.000000000000e+00 2.050000000000e+01 0.000000000000e+00 0.000000000000e+00 0.000000000000e+00
7.500000000000e+02 0.000000000000e+00 2.050000000000e+01 0.000000000000e+00 0.000000000000e+00 0.000000000000e+00
7.490000000000e+02 0.000000000000e+00 2.150000000000e+01 0.000000000000e+00 0.000000000000e+00 0.000000000000e+00
7.500000000000e+02 0.000000000000e+00 2.150000000000e+01 0.000000000000e+00 0.000000000000e+00 0.000000000000e+00
7.490000000000e+02 0.000000000000e+00 2.250000000000e+01 0.000000000000e+00 0.000000000000e+00 0.000000000000e+00
7.500000000000e+02 0.000000000000e+00 2.250000000000e+01 0.000000000000e+00 0.000000000000e+00 0.000000000000e+00
7.490000000000e+02 0.000000000000e+00 2.350000000000e+01 0.000000000000e+00 0.000000000000e+00 0.000000000000e+00
7.500000000000e+02 0.000000000000e+00 2.350000000000e+01 0.000000000000e+00 0.000000000000e+00 0.000000000000e+00
7.490000000000e+02 0.000000000000e+00 2.450000000000e+01 0.000000000000e+00 0.000000000000e+00 0.000000000000e+00
7.500000000000e+02 0.000000000000e+00 2.450000000000e+01 0.000000000000e+00 0.000000000000e+00 0.000000000000e+00
7.490000000000e+02 0.000000000000e+00 2.550000000000e+01 0.000000000000e+00 0.000000000000e+00 0.000000000000e+00
7.500000000000e+02 0.000000000000e+00 2.550000000000e+01 0.000000000000e+00 0.000000000000e+00 0.000000000000e+00
7.490000000000e+02 0.000000000000e+00 2.650000000000e+01 0.000000000000e+00 0.000000000000e+00 0.000000000000e+00
7.500000000000e+02 0.000000000000e+00 2.650000000000e+01 0.000000000000e+00 0.000000000000e+00 0.000000000000e+00
7.490000000000e+02 0.000000000000e+00 2.750000000000e+01 0.000000000000e+00 0.000000000000e+00 0.000000000000e+00
7.500000000000e+02 0.000000000000e+00 2.750000000000e+01 0.000000000000e+00 0.000000000000e+00 0.000000000000e+00
7.490000000000e+02 0.000000000000e+00 2.850000000000e+01 0.000000000000e+00 0.000000000000e+00 0.000000000000e+00
7.500000000000e+02 0.000000000000e+00 2.850000000000e+01 0.000000000000e+00 0.000000000000e+00 0.000000000000e+00
7.490000000000e+02 0.000000000000e+00 2.950000000000e+01 0.000000000000e+00 0.000000000000e+00 0.000000000000e+00
7.500000000000e+02 0.000000000000e+00 2.950000000000e+01 0.000000000000e+00 0.000000000000e+00 0.000000000000e+00
VARIABLES = "X","Y","Z",VELOCITY1_X,VELOCITY1_Y,VELOCITY1_Z
ZONE T="1.797693134862e+308s", 
7.490000000000e+02 0.000000000000e+00 5.000000000000e-01 9.255382033150e-09 -5.975538396147e-12 0.000000000000e+00
7.500000000000e+02 0.000000000000e+00 5.000000000000e-01 9.267327355045e-09 -5.972337086902e-12 0.000000000000e+00
7.490000000000e+02 0.000000000000e+00 1.500000000000e+00 4.022275584209e-07 -2.716417341049e-10 0.000000000000e+00
7.500000000000e+02 0.000000000000e+00 1.500000000000e+00 4.027466893597e-07 -2.714962334113e-10 0.000000000000e+00
7.490000000000e+02 0.000000000000e+00 2.500000000000e+00 1.203227323124e-07 -6.090233781352e-10 0.000000000000e+00
7.500000000000e+02 0.000000000000e+00 2.500000000000e+00 1.204780266320e-07 -6.086971698040e-10 0.000000000000e+00
7.490000000000e+02 0.000000000000e+00 3.500000000000e+00 1.970017987692e-08 -6.994308672328e-10 0.000000000000e+00
7.500000000000e+02 0.000000000000e+00 3.500000000000e+00 1.972560706444e-08 -6.990562882992e-10 0.000000000000e+00
7.490000000000e+02 0.000000000000e+00 4.500000000000e+00 1.230216642954e-08 -7.200974670840e-10 0.000000000000e+00
7.500000000000e+02 0.000000000000e+00 4.500000000000e+00 1.231804826623e-08 -7.197118926834e-10 0.000000000000e+00
7.490000000000e+02 0.000000000000e+00 5.500000000000e+00 3.808198830066e-08 -7.526449015723e-10 0.000000000000e+00
7.500000000000e+02 0.000000000000e+00 5.500000000000e+00 3.813116597900e-08 -7.522421809298e-10 0.000000000000e+00
7.490000000000e+02 0.000000000000e+00 6.500000000000e+00 1.406590458465e-08 -7.863356564169e-10 0.000000000000e+00
7.500000000000e+02 0.000000000000e+00 6.500000000000e+00 1.408407115388e-08 -7.859152460526e-10 0.000000000000e+00
7.490000000000e+02 0.000000000000e+00 7.500000000000e+00 3.739125258426e-08 -8.195899123207e-10 0.000000000000e+00
7.500000000000e+02 0.000000000000e+00 7.500000000000e+00 3.743955838574e-08 -8.191522071296e-10 0.000000000000e+00
7.490000000000e+02 0.000000000000e+00 8.500000000000e+00 2.144370702725e-08 -8.576168492720e-10 0.000000000000e+00
7.500000000000e+02 0.000000000000e+00 8.500000000000e+00 2.147141380969e-08 -8.571594428250e-10 0.000000000000e+00
7.490000000000e+02 0.000000000000e+00 9.500000000000e+00 8.305183154507e-07 -1.408376879002e-09 0.000000000000e+00
7.500000000000e+02 0.000000000000e+00 9.500000000000e+00 8.315916131486e-07 -1.407636047075e-09 0.000000000000e+00
7.490000000000e+02 0.000000000000e+00 1.050000000000e+01 9.189088063105e-09 -1.951230013378e-09 0.000000000000e+00
7.500000000000e+02 0.000000000000e+00 1.050000000000e+01 9.200964951745e-09 -1.950209934167e-09 0.000000000000e+00
7.490000000000e+02 0.000000000000e+00 1.150000000000e+01 2.705338032050e-09 -1.958928603058e-09 0.000000000000e+00
7.500000000000e+02 0.000000000000e+00 1.150000000000e+01 2.708839742837e-09 -1.957904705511e-09 0.000000000000e+00
7.490000000000e+02 0.000000000000e+00 1.250000000000e+01 7.364844750284e-08 -2.008533548651e-09 0.000000000000e+00
7.500000000000e+02 0.000000000000e+00 1.250000000000e+01 7.374410529450e-08 -2.007488144744e-09 0.000000000000e+00
7.490000000000e+02 0.000000000000e+00 1.350000000000e+01 1.120936268682e-06 -2.784726783261e-09 0.000000000000e+00
7.500000000000e+02 0.000000000000e+00 1.350000000000e+01 1.122392378414e-06 -2.783346619968e-09 0.000000000000e+00
7.490000000000e+02 0.000000000000e+00 1.450000000000e+01 2.654240826948e-07 -3.685555948217e-09 0.000000000000e+00
7.500000000000e+02 0.000000000000e+00 1.450000000000e+01 2.657688782729e-07 -3.683787670743e-09 0.000000000000e+00
7.490000000000e+02 0.000000000000e+00 1.550000000000e+01 5.043963118639e-08 -3.890811806171e-09 0.000000000000e+00
7.500000000000e+02 0.000000000000e+00 1.550000000000e+01 5.050516085954e-08 -3.888955289005e-09 0.000000000000e+00
7.490000000000e+02 0.000000000000e+00 1.650000000000e+01 1.121824590630e-09 -3.924330577779e-09 0.000000000000e+00
7.500000000000e+02 0.000000000000e+00 1.650000000000e+01 1.123285322490e-09 -3.922459857200e-09 0.000000000000e+00
7.490000000000e+02 0.000000000000e+00 1.750000000000e+01 2.423478143181e-09 -3.926674867343e-09 0.000000000000e+00
7.500000000000e+02 0.000000000000e+00 1.750000000000e+01 2.426684167062e-09 -3.924803789863e-09 0.000000000000e+00
7.490000000000e+02 0.000000000000e+00 1.850000000000e+01 6.506316671997e-07 -4.361622147893e-09 0.000000000000e+00
7.500000000000e+02 0.000000000000e+00 1.850000000000e+01 6.514983044430e-07 -4.359738257469e-09 0.000000000000e+00
7.490000000000e+02 0.000000000000e+00 1.950000000000e+01 5.686591618716e-08 -4.832857661540e-09 0.000000000000e+00
7.500000000000e+02 0.000000000000e+00 1.950000000000e+01 5.694166602269e-08 -4.830960155444e-09 0.000000000000e+00
7.490000000000e+02 0.000000000000e+00 2.050000000000e+01 1.760504334497e-08 -4.882476520677e-09 0.000000000000e+00
7.500000000000e+02 0.000000000000e+00 2.050000000000e+01 1.762850443318e-08 -4.880577839767e-09 0.000000000000e+00
7.490000000000e+02 0.000000000000e+00 2.150000000000e+01 1.528118096571e-10 -4.894321474001e-09 0.000000000000e+00
7.500000000000e+02 0.000000000000e+00 2.150000000000e+01 1.530184979755e-10 -4.892422718326e-09 0.000000000000e+00
7.490000000000e+02 0.000000000000e+00 2.250000000000e+01 1.243619809782e-08 -4.903735206015e-09 0.000000000000e+00
7.500000000000e+02 0.000000000000e+00 2.250000000000e+01 1.245482611211e-08 -4.901852836758e-09 0.000000000000e+00
7.490000000000e+02 0.000000000000e+00 2.350000000000e+01 3.337826514340e-09 -4.915546669211e-09 0.000000000000e+00
7.500000000000e+02 0.000000000000e+00 2.350000000000e+01 3.342834858989e-09 -4.913685089078e-09 0.000000000000e+00
7.490000000000e+02 0.000000000000e+00 2.450000000000e+01 2.669377269033e-09 -4.920067082875e-09 0.000000000000e+00
7.500000000000e+02 0.000000000000e+00 2.450000000000e+01 2.673402737620e-09 -4.918213772634e-09 0.000000000000e+00
7.490000000000e+02 0.000000000000e+00 2.550000000000e+01 4.854982317728e-08 -4.958830102623e-09 0.000000000000e+00
7.500000000000e+02 0.000000000000e+00 2.550000000000e+01 4.862343287688e-08 -4.957050997158e-09 0.000000000000e+00
7.490000000000e+02 0.000000000000e+00 2.650000000000e+01 1.868096337850e-08 -5.009729790279e-09 0.000000000000e+00
7.500000000000e+02 0.000000000000e+00 2.650000000000e+01 1.870929733485e-08 -5.008048362707e-09 0.000000000000e+00
7.490000000000e+02 0.000000000000e+00 2.750000000000e+01 6.832602151574e-10 -5.024402276406e-09 0.000000000000e+00
7.500000000000e+02 0.000000000000e+00 2.750000000000e+01 6.842997008929e-10 -5.022749171946e-09 0.000000000000e+00
7.490000000000e+02 0.000000000000e+00 2.850000000000e+01 4.802044991749e-07 -5.396246386606e-09 0.000000000000e+00
7.500000000000e+02 0.000000000000e+00 2.850000000000e+01 4.809485795829e-07 -5.395418343332e-09 0.000000000000e+00
7.490000000000e+02 0.000000000000e+00 2.950000000000e+01 1.298684934353e-09 -5.768606001814e-09 0.000000000000e+00
7.500000000000e+02 0.000000000000e+00 2.950000000000e+01 1.300697285807e-09 -5.768603774640e-09 0.000000000000e+00
