 TITLE = "Profiles along polylines"
 VARIABLES = "DIST" "HEAD" "VELOCITY_X1" "VELOCITY_Y1" "VELOCITY_Z1" 
 ZONE T="TIME=0.000000000000e+00"
0.000000000000e+00 3.000000000000e+01 0.000000000000e+00 0.000000000000e+00 0.000000000000e+00 
1.000000000000e+00 3.000000000000e+01 0.000000000000e+00 0.000000000000e+00 0.000000000000e+00 
2.000000000000e+00 3.000000000000e+01 0.000000000000e+00 0.000000000000e+00 0.000000000000e+00 
3.000000000000e+00 3.000000000000e+01 0.000000000000e+00 0.000000000000e+00 0.000000000000e+00 
4.000000000000e+00 3.000000000000e+01 0.000000000000e+00 0.000000000000e+00 0.000000000000e+00 
5.000000000000e+00 3.000000000000e+01 0.000000000000e+00 0.000000000000e+00 0.000000000000e+00 
6.000000000000e+00 3.000000000000e+01 0.000000000000e+00 0.000000000000e+00 0.000000000000e+00 
7.000000000000e+00 3.000000000000e+01 0.000000000000e+00 0.000000000000e+00 0.000000000000e+00 
8.000000000000e+00 3.000000000000e+01 0.000000000000e+00 0.000000000000e+00 0.000000000000e+00 
9.000000000000e+00 3.000000000000e+01 0.000000000000e+00 0.000000000000e+00 0.000000000000e+00 
1.000000000000e+01 3.000000000000e+01 0.000000000000e+00 0.000000000000e+00 0.000000000000e+00 
1.100000000000e+01 3.000000000000e+01 0.000000000000e+00 0.000000000000e+00 0.000000000000e+00 
1.200000000000e+01 3.000000000000e+01 0.000000000000e+00 0.000000000000e+00 0.000000000000e+00 
1.300000000000e+01 3.000000000000e+01 0.000000000000e+00 0.000000000000e+00 0.000000000000e+00 
1.400000000000e+01 3.000000000000e+01 0.000000000000e+00 0.000000000000e+00 0.000000000000e+00 
1.500000000000e+01 3.000000000000e+01 0.000000000000e+00 0.000000000000e+00 0.000000000000e+00 
1.600000000000e+01 3.000000000000e+01 0.000000000000e+00 0.000000000000e+00 0.000000000000e+00 
1.700000000000e+01 3.000000000000e+01 0.000000000000e+00 0.000000000000e+00 0.000000000000e+00 
1.800000000000e+01 3.000000000000e+01 0.000000000000e+00 0.000000000000e+00 0.000000000000e+00 
1.900000000000e+01 3.000000000000e+01 0.000000000000e+00 0.000000000000e+00 0.000000000000e+00 
2.000000000000e+01 3.000000000000e+01 0.000000000000e+00 0.000000000000e+00 0.000000000000e+00 
2.100000000000e+01 3.000000000000e+01 0.000000000000e+00 0.000000000000e+00 0.000000000000e+00 
2.200000000000e+01 3.000000000000e+01 0.000000000000e+00 0.000000000000e+00 0.000000000000e+00 
2.300000000000e+01 3.000000000000e+01 0.000000000000e+00 0.000000000000e+00 0.000000000000e+00 
2.400000000000e+01 3.000000000000e+01 0.000000000000e+00 0.000000000000e+00 0.000000000000e+00 
2.500000000000e+01 3.000000000000e+01 0.000000000000e+00 0.000000000000e+00 0.000000000000e+00 
2.600000000000e+01 3.000000000000e+01 0.000000000000e+00 0.000000000000e+00 0.000000000000e+00 
2.700000000000e+01 3.000000000000e+01 0.000000000000e+00 0.000000000000e+00 0.000000000000e+00 
2.800000000000e+01 3.000000000000e+01 0.000000000000e+00 0.000000000000e+00 0.000000000000e+00 
2.900000000000e+01 3.000000000000e+01 0.000000000000e+00 0.000000000000e+00 0.000000000000e+00 
3.000000000000e+01 3.000000000000e+01 0.000000000000e+00 0.000000000000e+00 0.000000000000e+00 
 TITLE = "Profiles along polylines"
 VARIABLES = "DIST" "HEAD" "VELOCITY_X1" "VELOCITY_Y1" "VELOCITY_Z1" 
 ZONE T="TIME=1.797693134862e+308"
0.000000000000e+00 3.009993878066e+01 1.088406131910e-08 -4.307129869975e-12 0.000000000000e+00 
1.000000000000e+00 3.009993916502e+01 2.419465035175e-07 -1.000553844857e-10 0.000000000000e+00 
2.000000000000e+00 3.009993956707e+01 3.072533447688e-07 -3.173977653982e-10 0.000000000000e+00 
3.000000000000e+00 3.009994258040e+01 8.233324035642e-08 -4.715837989744e-10 0.000000000000e+00 
4.000000000000e+00 3.009996371778e+01 1.881955622332e-08 -5.116397827715e-10 0.000000000000e+00 
5.000000000000e+00 3.009999856923e+01 2.963464950772e-08 -5.308941204925e-10 0.000000000000e+00 
6.000000000000e+00 3.010001033956e+01 3.067393393630e-08 -5.549007566352e-10 0.000000000000e+00 
7.000000000000e+00 3.010004364164e+01 3.027294150667e-08 -5.792098246053e-10 0.000000000000e+00 
8.000000000000e+00 3.010005670390e+01 3.461575547630e-08 -6.051458816427e-10 0.000000000000e+00 
9.000000000000e+00 3.010008054724e+01 5.013148237371e-07 -8.199009586151e-10 0.000000000000e+00 
1.000000000000e+01 3.010008156253e+01 4.941066463372e-07 -1.218847795096e-09 0.000000000000e+00 
1.100000000000e+01 3.010020893029e+01 7.004063943125e-09 -1.419721775497e-09 0.000000000000e+00 
1.200000000000e+01 3.010064334890e+01 4.505927938578e-08 -1.441516209871e-09 0.000000000000e+00 
1.300000000000e+01 3.010065973724e+01 7.050223336951e-07 -1.757467741950e-09 0.000000000000e+00 
1.400000000000e+01 3.010066125195e+01 8.182110342521e-07 -2.399176986442e-09 0.000000000000e+00 
1.500000000000e+01 3.010066979549e+01 1.864267885736e-07 -2.822487913270e-09 0.000000000000e+00 
1.600000000000e+01 3.010071732954e+01 3.043986674012e-08 -2.913969563326e-09 0.000000000000e+00 
1.700000000000e+01 3.010287402001e+01 2.115356537709e-09 -2.927905876784e-09 0.000000000000e+00 
1.800000000000e+01 3.010387462954e+01 3.913327917414e-07 -3.136865506741e-09 0.000000000000e+00 
1.900000000000e+01 3.010387888865e+01 4.239641902733e-07 -3.570070970475e-09 0.000000000000e+00 
2.000000000000e+01 3.010393418448e+01 4.463679374174e-08 -3.819165547255e-09 0.000000000000e+00 
2.100000000000e+01 3.010411504238e+01 1.065195060600e-08 -3.848699724194e-09 0.000000000000e+00 
2.200000000000e+01 3.012504467738e+01 8.156835999556e-09 -3.863603609947e-09 0.000000000000e+00 
2.300000000000e+01 3.012530592547e+01 1.022948704455e-08 -3.884332433183e-09 0.000000000000e+00 
2.400000000000e+01 3.012628529829e+01 3.909198509176e-09 -3.900408229749e-09 0.000000000000e+00 
2.500000000000e+01 3.012751345936e+01 3.346117134188e-08 -3.944550380976e-09 0.000000000000e+00 
2.600000000000e+01 3.012758239964e+01 4.393061773184e-08 -4.036276852743e-09 0.000000000000e+00 
2.700000000000e+01 3.012776626151e+01 1.266048970740e-08 -4.103437292710e-09 0.000000000000e+00 
2.800000000000e+01 3.013283203924e+01 3.188736401097e-07 -4.530443048515e-09 0.000000000000e+00 
2.900000000000e+01 3.013284070753e+01 3.192845011052e-07 -5.354885419037e-09 0.000000000000e+00 
3.000000000000e+01 3.013658094287e+01 1.722331724203e-09 -5.767385026070e-09 0.000000000000e+00 
