VARIABLES = "X","Y","Z",VELOCITY1_X,VELOCITY1_Y,VELOCITY1_Z
ZONE T="0.000000000000e+00s", 
9.990000000000e+02 0.000000000000e+00 5.000000000000e-01 0.000000000000e+00 0.000000000000e+00 0.000000000000e+00
9.990000000000e+02 0.000000000000e+00 1.500000000000e+00 0.000000000000e+00 0.000000000000e+00 0.000000000000e+00
9.990000000000e+02 0.000000000000e+00 2.500000000000e+00 0.000000000000e+00 0.000000000000e+00 0.000000000000e+00
9.990000000000e+02 0.000000000000e+00 3.500000000000e+00 0.000000000000e+00 0.000000000000e+00 0.000000000000e+00
9.990000000000e+02 0.000000000000e+00 4.500000000000e+00 0.000000000000e+00 0.000000000000e+00 0.000000000000e+00
9.990000000000e+02 0.000000000000e+00 5.500000000000e+00 0.000000000000e+00 0.000000000000e+00 0.000000000000e+00
9.990000000000e+02 0.000000000000e+00 6.500000000000e+00 0.000000000000e+00 0.000000000000e+00 0.000000000000e+00
9.990000000000e+02 0.000000000000e+00 7.500000000000e+00 0.000000000000e+00 0.000000000000e+00 0.000000000000e+00
9.990000000000e+02 0.000000000000e+00 8.500000000000e+00 0.000000000000e+00 0.000000000000e+00 0.000000000000e+00
9.990000000000e+02 0.000000000000e+00 9.500000000000e+00 0.000000000000e+00 0.000000000000e+00 0.000000000000e+00
9.990000000000e+02 0.000000000000e+00 1.050000000000e+01 0.000000000000e+00 0.000000000000e+00 0.000000000000e+00
9.990000000000e+02 0.000000000000e+00 1.150000000000e+01 0.000000000000e+00 0.000000000000e+00 0.000000000000e+00
9.990000000000e+02 0.000000000000e+00 1.250000000000e+01 0.000000000000e+00 0.000000000000e+00 0.000000000000e+00
9.990000000000e+02 0.000000000000e+00 1.350000000000e+01 0.000000000000e+00 0.000000000000e+00 0.000000000000e+00
9.990000000000e+02 0.000000000000e+00 1.450000000000e+01 0.000000000000e+00 0.000000000000e+00 0.000000000000e+00
9.990000000000e+02 0.000000000000e+00 1.550000000000e+01 0.000000000000e+00 0.000000000000e+00 0.000000000000e+00
9.990000000000e+02 0.000000000000e+00 1.650000000000e+01 0.000000000000e+00 0.000000000000e+00 0.000000000000e+00
9.990000000000e+02 0.000000000000e+00 1.750000000000e+01 0.000000000000e+00 0.000000000000e+00 0.000000000000e+00
9.990000000000e+02 0.000000000000e+00 1.850000000000e+01 0.000000000000e+00 0.000000000000e+00 0.000000000000e+00
9.990000000000e+02 0.000000000000e+00 1.950000000000e+01 0.000000000000e+00 0.000000000000e+00 0.000000000000e+00
9.990000000000e+02 0.000000000000e+00 2.050000000000e+01 0.000000000000e+00 0.000000000000e+00 0.000000000000e+00
9.990000000000e+02 0.000000000000e+00 2.150000000000e+01 0.000000000000e+00 0.000000000000e+00 0.000000000000e+00
9.990000000000e+02 0.000000000000e+00 2.250000000000e+01 0.000000000000e+00 0.000000000000e+00 0.000000000000e+00
9.990000000000e+02 0.000000000000e+00 2.350000000000e+01 0.000000000000e+00 0.000000000000e+00 0.000000000000e+00
9.990000000000e+02 0.000000000000e+00 2.450000000000e+01 0.000000000000e+00 0.000000000000e+00 0.000000000000e+00
9.990000000000e+02 0.000000000000e+00 2.550000000000e+01 0.000000000000e+00 0.000000000000e+00 0.000000000000e+00
9.990000000000e+02 0.000000000000e+00 2.650000000000e+01 0.000000000000e+00 0.000000000000e+00 0.000000000000e+00
9.990000000000e+02 0.000000000000e+00 2.750000000000e+01 0.000000000000e+00 0.000000000000e+00 0.000000000000e+00
9.990000000000e+02 0.000000000000e+00 2.850000000000e+01 0.000000000000e+00 0.000000000000e+00 0.000000000000e+00
9.990000000000e+02 0.000000000000e+00 2.950000000000e+01 0.000000000000e+00 0.000000000000e+00 0.000000000000e+00
VARIABLES = "X","Y","Z",VELOCITY1_X,VELOCITY1_Y,VELOCITY1_Z
ZONE T="1.797693134862e+308s", 
9.990000000000e+02 0.000000000000e+00 5.000000000000e-01 1.349483401816e-09 -5.376080701735e-15 0.000000000000e+00
9.990000000000e+02 0.000000000000e+00 1.500000000000e+00 6.825240956722e-08 -2.826937484572e-13 0.000000000000e+00
9.990000000000e+02 0.000000000000e+00 2.500000000000e+00 2.910833696873e-09 -5.662831307000e-13 0.000000000000e+00
9.990000000000e+02 0.000000000000e+00 3.500000000000e+00 1.106447691690e-08 -6.222834344550e-13 0.000000000000e+00
9.990000000000e+02 0.000000000000e+00 4.500000000000e+00 6.070681833142e-08 -9.103365308026e-13 0.000000000000e+00
9.990000000000e+02 0.000000000000e+00 5.500000000000e+00 1.449102614204e-07 -1.735922892746e-12 0.000000000000e+00
9.990000000000e+02 0.000000000000e+00 6.500000000000e+00 1.693960082276e-08 -2.386004011506e-12 0.000000000000e+00
9.990000000000e+02 0.000000000000e+00 7.500000000000e+00 2.373010948162e-08 -2.550044465600e-12 0.000000000000e+00
9.990000000000e+02 0.000000000000e+00 8.500000000000e+00 3.958329182458e-09 -2.662079723116e-12 0.000000000000e+00
9.990000000000e+02 0.000000000000e+00 9.500000000000e+00 4.590996202674e-08 -2.867863697516e-12 0.000000000000e+00
9.990000000000e+02 0.000000000000e+00 1.050000000000e+01 1.535908447467e-09 -3.064018638653e-12 0.000000000000e+00
9.990000000000e+02 0.000000000000e+00 1.150000000000e+01 1.353696034555e-06 -8.998971333995e-12 0.000000000000e+00
9.990000000000e+02 0.000000000000e+00 1.250000000000e+01 1.479716593276e-08 -1.499389934973e-11 0.000000000000e+00
9.990000000000e+02 0.000000000000e+00 1.350000000000e+01 5.774711930232e-08 -1.532598840965e-11 0.000000000000e+00
9.990000000000e+02 0.000000000000e+00 1.450000000000e+01 3.210045696267e-07 -1.707937422789e-11 0.000000000000e+00
9.990000000000e+02 0.000000000000e+00 1.550000000000e+01 8.150000723719e-10 -1.857294175926e-11 0.000000000000e+00
9.990000000000e+02 0.000000000000e+00 1.650000000000e+01 1.911812126540e-10 -1.858283204192e-11 0.000000000000e+00
9.990000000000e+02 0.000000000000e+00 1.750000000000e+01 6.494385746913e-07 -3.761278907135e-11 0.000000000000e+00
9.990000000000e+02 0.000000000000e+00 1.850000000000e+01 1.697381219389e-08 -5.721481034263e-11 0.000000000000e+00
9.990000000000e+02 0.000000000000e+00 1.950000000000e+01 2.430354291401e-08 -5.881136711998e-11 0.000000000000e+00
9.990000000000e+02 0.000000000000e+00 2.050000000000e+01 5.190969244664e-08 -6.229475150085e-11 0.000000000000e+00
9.990000000000e+02 0.000000000000e+00 2.150000000000e+01 2.553757244434e-08 -6.615594200775e-11 0.000000000000e+00
9.990000000000e+02 0.000000000000e+00 2.250000000000e+01 3.669640186157e-09 -6.792609102110e-11 0.000000000000e+00
9.990000000000e+02 0.000000000000e+00 2.350000000000e+01 1.047693013825e-07 -8.348505934215e-11 0.000000000000e+00
9.990000000000e+02 0.000000000000e+00 2.450000000000e+01 1.319786449364e-08 -1.015095528334e-10 0.000000000000e+00
9.990000000000e+02 0.000000000000e+00 2.550000000000e+01 9.320598512301e-07 -3.784519478531e-10 0.000000000000e+00
9.990000000000e+02 0.000000000000e+00 2.650000000000e+01 5.783500074458e-07 -8.755710299040e-10 0.000000000000e+00
9.990000000000e+02 0.000000000000e+00 2.750000000000e+01 1.196059816614e-06 -1.795913777034e-09 0.000000000000e+00
9.990000000000e+02 0.000000000000e+00 2.850000000000e+01 3.128844893335e-08 -2.831316615445e-09 0.000000000000e+00
9.990000000000e+02 0.000000000000e+00 2.950000000000e+01 4.863053067008e-09 -4.402957897141e-09 0.000000000000e+00
