 TITLE = "Profiles along polylines"
 VARIABLES = "DIST" "HEAD" "VELOCITY_X1" "VELOCITY_Y1" "VELOCITY_Z1" 
 ZONE T="TIME=0.000000000000e+00"
0.000000000000e+00 3.000000000000e+01 0.000000000000e+00 0.000000000000e+00 0.000000000000e+00 
1.000000000000e+00 3.000000000000e+01 0.000000000000e+00 0.000000000000e+00 0.000000000000e+00 
2.000000000000e+00 3.000000000000e+01 0.000000000000e+00 0.000000000000e+00 0.000000000000e+00 
3.000000000000e+00 3.000000000000e+01 0.000000000000e+00 0.000000000000e+00 0.000000000000e+00 
4.000000000000e+00 3.000000000000e+01 0.000000000000e+00 0.000000000000e+00 0.000000000000e+00 
5.000000000000e+00 3.000000000000e+01 0.000000000000e+00 0.000000000000e+00 0.000000000000e+00 
6.000000000000e+00 3.000000000000e+01 0.000000000000e+00 0.000000000000e+00 0.000000000000e+00 
7.000000000000e+00 3.000000000000e+01 0.000000000000e+00 0.000000000000e+00 0.000000000000e+00 
8.000000000000e+00 3.000000000000e+01 0.000000000000e+00 0.000000000000e+00 0.000000000000e+00 
9.000000000000e+00 3.000000000000e+01 0.000000000000e+00 0.000000000000e+00 0.000000000000e+00 
1.000000000000e+01 3.000000000000e+01 0.000000000000e+00 0.000000000000e+00 0.000000000000e+00 
1.100000000000e+01 3.000000000000e+01 0.000000000000e+00 0.000000000000e+00 0.000000000000e+00 
1.200000000000e+01 3.000000000000e+01 0.000000000000e+00 0.000000000000e+00 0.000000000000e+00 
1.300000000000e+01 3.000000000000e+01 0.000000000000e+00 0.000000000000e+00 0.000000000000e+00 
1.400000000000e+01 3.000000000000e+01 0.000000000000e+00 0.000000000000e+00 0.000000000000e+00 
1.500000000000e+01 3.000000000000e+01 0.000000000000e+00 0.000000000000e+00 0.000000000000e+00 
1.600000000000e+01 3.000000000000e+01 0.000000000000e+00 0.000000000000e+00 0.000000000000e+00 
1.700000000000e+01 3.000000000000e+01 0.000000000000e+00 0.000000000000e+00 0.000000000000e+00 
1.800000000000e+01 3.000000000000e+01 0.000000000000e+00 0.000000000000e+00 0.000000000000e+00 
1.900000000000e+01 3.000000000000e+01 0.000000000000e+00 0.000000000000e+00 0.000000000000e+00 
2.000000000000e+01 3.000000000000e+01 0.000000000000e+00 0.000000000000e+00 0.000000000000e+00 
2.100000000000e+01 3.000000000000e+01 0.000000000000e+00 0.000000000000e+00 0.000000000000e+00 
2.200000000000e+01 3.000000000000e+01 0.000000000000e+00 0.000000000000e+00 0.000000000000e+00 
2.300000000000e+01 3.000000000000e+01 0.000000000000e+00 0.000000000000e+00 0.000000000000e+00 
2.400000000000e+01 3.000000000000e+01 0.000000000000e+00 0.000000000000e+00 0.000000000000e+00 
2.500000000000e+01 3.000000000000e+01 0.000000000000e+00 0.000000000000e+00 0.000000000000e+00 
2.600000000000e+01 3.000000000000e+01 0.000000000000e+00 0.000000000000e+00 0.000000000000e+00 
2.700000000000e+01 3.000000000000e+01 0.000000000000e+00 0.000000000000e+00 0.000000000000e+00 
2.800000000000e+01 3.000000000000e+01 0.000000000000e+00 0.000000000000e+00 0.000000000000e+00 
2.900000000000e+01 3.000000000000e+01 0.000000000000e+00 0.000000000000e+00 0.000000000000e+00 
3.000000000000e+01 3.000000000000e+01 0.000000000000e+00 0.000000000000e+00 0.000000000000e+00 
 TITLE = "Profiles along polylines"
 VARIABLES = "DIST" "HEAD" "VELOCITY_X1" "VELOCITY_Y1" "VELOCITY_Z1" 
 ZONE T="TIME=1.797693134862e+308"
0.000000000000e+00 3.040396005080e+01 7.494397045495e-10 -7.459625735448e-13 0.000000000000e+00 
1.000000000000e+00 3.040396060048e+01 1.932672695774e-08 -1.998311083569e-11 0.000000000000e+00 
2.000000000000e+00 3.040396117189e+01 1.976025154076e-08 -5.889209943677e-11 0.000000000000e+00 
3.000000000000e+00 3.040398801141e+01 3.879878155097e-09 -8.242599037073e-11 0.000000000000e+00 
4.000000000000e+00 3.040399576809e+01 1.992361576481e-08 -1.061201000427e-10 0.000000000000e+00 
5.000000000000e+00 3.040399783181e+01 5.707786336410e-08 -1.827697220594e-10 0.000000000000e+00 
6.000000000000e+00 3.040399947638e+01 4.492803817166e-08 -2.843144353601e-10 0.000000000000e+00 
7.000000000000e+00 3.040401879826e+01 1.128824238345e-08 -3.402783350657e-10 0.000000000000e+00 
8.000000000000e+00 3.040403353540e+01 7.684479740491e-09 -3.591649103611e-10 0.000000000000e+00 
9.000000000000e+00 3.040412574743e+01 1.382932476499e-08 -3.805810375259e-10 0.000000000000e+00 
1.000000000000e+01 3.040413430046e+01 1.315671310162e-08 -4.074460835664e-10 0.000000000000e+00 
1.100000000000e+01 3.040440703006e+01 3.749535651436e-07 -7.938349377062e-10 0.000000000000e+00 
1.200000000000e+01 3.040440789056e+01 3.786211957164e-07 -1.544128851637e-09 0.000000000000e+00 
1.300000000000e+01 3.040453748572e+01 2.005170678226e-08 -1.941097192407e-09 0.000000000000e+00 
1.400000000000e+01 3.040457141897e+01 1.046432747130e-07 -2.065251132338e-09 0.000000000000e+00 
1.500000000000e+01 3.040457817387e+01 8.890951269502e-08 -2.257976344653e-09 0.000000000000e+00 
1.600000000000e+01 3.040746439657e+01 2.754335432846e-10 -2.346786757981e-09 0.000000000000e+00 
1.700000000000e+01 3.042020896390e+01 1.577449862761e-07 -2.505194962438e-09 0.000000000000e+00 
1.800000000000e+01 3.042021363503e+01 1.618136219050e-07 -2.825561925950e-09 0.000000000000e+00 
1.900000000000e+01 3.042041422881e+01 9.996445061157e-09 -2.997817307394e-09 0.000000000000e+00 
2.000000000000e+01 3.042055578408e+01 1.839720711022e-08 -3.026284133490e-09 0.000000000000e+00 
2.100000000000e+01 3.042062304410e+01 1.867043999105e-08 -3.063449289461e-09 0.000000000000e+00 
2.200000000000e+01 3.042076165506e+01 7.029562947179e-09 -3.089218250528e-09 0.000000000000e+00 
2.300000000000e+01 3.042173548118e+01 2.552919877905e-08 -3.121868836557e-09 0.000000000000e+00 
2.400000000000e+01 3.042177079979e+01 2.774945099387e-08 -3.175304437420e-09 0.000000000000e+00 
2.500000000000e+01 3.042205663669e+01 2.203248199205e-07 -3.424110579507e-09 0.000000000000e+00 
2.600000000000e+01 3.042206127821e+01 3.519343604540e-07 -3.998096361635e-09 0.000000000000e+00 
2.700000000000e+01 3.042207021261e+01 4.128211855601e-07 -4.765167713602e-09 0.000000000000e+00 
2.800000000000e+01 3.042207536380e+01 2.852928643494e-07 -5.465398332587e-09 0.000000000000e+00 
2.900000000000e+01 3.042229691319e+01 8.086680060319e-09 -5.759682112833e-09 0.000000000000e+00 
3.000000000000e+01 3.042405826993e+01 1.811569736904e-09 -5.767793357063e-09 0.000000000000e+00 
