VARIABLES = "X","Y","Z",VELOCITY1_X,VELOCITY1_Y,VELOCITY1_Z
ZONE T="0.000000000000e+00s", 
4.990000000000e+02 0.000000000000e+00 5.000000000000e-01 0.000000000000e+00 0.000000000000e+00 0.000000000000e+00
5.000000000000e+02 0.000000000000e+00 5.000000000000e-01 0.000000000000e+00 0.000000000000e+00 0.000000000000e+00
4.990000000000e+02 0.000000000000e+00 1.500000000000e+00 0.000000000000e+00 0.000000000000e+00 0.000000000000e+00
5.000000000000e+02 0.000000000000e+00 1.500000000000e+00 0.000000000000e+00 0.000000000000e+00 0.000000000000e+00
4.990000000000e+02 0.000000000000e+00 2.500000000000e+00 0.000000000000e+00 0.000000000000e+00 0.000000000000e+00
5.000000000000e+02 0.000000000000e+00 2.500000000000e+00 0.000000000000e+00 0.000000000000e+00 0.000000000000e+00
4.990000000000e+02 0.000000000000e+00 3.500000000000e+00 0.000000000000e+00 0.000000000000e+00 0.000000000000e+00
5.000000000000e+02 0.000000000000e+00 3.500000000000e+00 0.000000000000e+00 0.000000000000e+00 0.000000000000e+00
4.990000000000e+02 0.000000000000e+00 4.500000000000e+00 0.000000000000e+00 0.000000000000e+00 0.000000000000e+00
5.000000000000e+02 0.000000000000e+00 4.500000000000e+00 0.000000000000e+00 0.000000000000e+00 0.000000000000e+00
4.990000000000e+02 0.000000000000e+00 5.500000000000e+00 0.000000000000e+00 0.000000000000e+00 0.000000000000e+00
5.000000000000e+02 0.000000000000e+00 5.500000000000e+00 0.000000000000e+00 0.000000000000e+00 0.000000000000e+00
4.990000000000e+02 0.000000000000e+00 6.500000000000e+00 0.000000000000e+00 0.000000000000e+00 0.000000000000e+00
5.000000000000e+02 0.000000000000e+00 6.500000000000e+00 0.000000000000e+00 0.000000000000e+00 0.000000000000e+00
4.990000000000e+02 0.000000000000e+00 7.500000000000e+00 0.000000000000e+00 0.000000000000e+00 0.000000000000e+00
5.000000000000e+02 0.000000000000e+00 7.500000000000e+00 0.000000000000e+00 0.000000000000e+00 0.000000000000e+00
4.990000000000e+02 0.000000000000e+00 8.500000000000e+00 0.000000000000e+00 0.000000000000e+00 0.000000000000e+00
5.000000000000e+02 0.000000000000e+00 8.500000000000e+00 0.000000000000e+00 0.000000000000e+00 0.000000000000e+00
4.990000000000e+02 0.000000000000e+00 9.500000000000e+00 0.000000000000e+00 0.000000000000e+00 0.000000000000e+00
5.000000000000e+02 0.000000000000e+00 9.500000000000e+00 0.000000000000e+00 0.000000000000e+00 0.000000000000e+00
4.990000000000e+02 0.000000000000e+00 1.050000000000e+01 0.000000000000e+00 0.000000000000e+00 0.000000000000e+00
5.000000000000e+02 0.000000000000e+00 1.050000000000e+01 0.000000000000e+00 0.000000000000e+00 0.000000000000e+00
4.990000000000e+02 0.000000000000e+00 1.150000000000e+01 0.000000000000e+00 0.000000000000e+00 0.000000000000e+00
5.000000000000e+02 0.000000000000e+00 1.150000000000e+01 0.000000000000e+00 0.000000000000e+00 0.000000000000e+00
4.990000000000e+02 0.000000000000e+00 1.250000000000e+01 0.000000000000e+00 0.000000000000e+00 0.000000000000e+00
5.000000000000e+02 0.000000000000e+00 1.250000000000e+01 0.000000000000e+00 0.000000000000e+00 0.000000000000e+00
4.990000000000e+02 0.000000000000e+00 1.350000000000e+01 0.000000000000e+00 0.000000000000e+00 0.000000000000e+00
5.000000000000e+02 0.000000000000e+00 1.350000000000e+01 0.000000000000e+00 0.000000000000e+00 0.000000000000e+00
4.990000000000e+02 0.000000000000e+00 1.450000000000e+01 0.000000000000e+00 0.000000000000e+00 0.000000000000e+00
5.000000000000e+02 0.000000000000e+00 1.450000000000e+01 0.000000000000e+00 0.000000000000e+00 0.000000000000e+00
4.990000000000e+02 0.000000000000e+00 1.550000000000e+01 0.000000000000e+00 0.000000000000e+00 0.000000000000e+00
5.000000000000e+02 0.000000000000e+00 1.550000000000e+01 0.000000000000e+00 0.000000000000e+00 0.000000000000e+00
4.990000000000e+02 0.000000000000e+00 1.650000000000e+01 0.000000000000e+00 0.000000000000e+00 0.000000000000e+00
5.000000000000e+02 0.000000000000e+00 1.650000000000e+01 0.000000000000e+00 0.000000000000e+00 0.000000000000e+00
4.990000000000e+02 0.000000000000e+00 1.750000000000e+01 0.000000000000e+00 0.000000000000e+00 0.000000000000e+00
5.000000000000e+02 0.000000000000e+00 1.750000000000e+01 0.000000000000e+00 0.000000000000e+00 0.000000000000e+00
4.990000000000e+02 0.000000000000e+00 1.850000000000e+01 0.000000000000e+00 0.000000000000e+00 0.000000000000e+00
5.000000000000e+02 0.000000000000e+00 1.850000000000e+01 0.000000000000e+00 0.000000000000e+00 0.000000000000e+00
4.990000000000e+02 0.000000000000e+00 1.950000000000e+01 0.000000000000e+00 0.000000000000e+00 0.000000000000e+00
5.000000000000e+02 0.000000000000e+00 1.950000000000e+01 0.000000000000e+00 0.000000000000e+00 0.000000000000e+00
4.990000000000e+02 0.000000000000e+00 2.050000000000e+01 0.000000000000e+00 0.000000000000e+00 0.000000000000e+00
5.000000000000e+02 0.000000000000e+00 2.050000000000e+01 0.000000000000e+00 0.000000000000e+00 0.000000000000e+00
4.990000000000e+02 0.000000000000e+00 2.150000000000e+01 0.000000000000e+00 0.000000000000e+00 0.000000000000e+00
5.000000000000e+02 0.000000000000e+00 2.150000000000e+01 0.000000000000e+00 0.000000000000e+00 0.000000000000e+00
4.990000000000e+02 0.000000000000e+00 2.250000000000e+01 0.000000000000e+00 0.000000000000e+00 0.000000000000e+00
5.000000000000e+02 0.000000000000e+00 2.250000000000e+01 0.000000000000e+00 0.000000000000e+00 0.000000000000e+00
4.990000000000e+02 0.000000000000e+00 2.350000000000e+01 0.000000000000e+00 0.000000000000e+00 0.000000000000e+00
5.000000000000e+02 0.000000000000e+00 2.350000000000e+01 0.000000000000e+00 0.000000000000e+00 0.000000000000e+00
4.990000000000e+02 0.000000000000e+00 2.450000000000e+01 0.000000000000e+00 0.000000000000e+00 0.000000000000e+00
5.000000000000e+02 0.000000000000e+00 2.450000000000e+01 0.000000000000e+00 0.000000000000e+00 0.000000000000e+00
4.990000000000e+02 0.000000000000e+00 2.550000000000e+01 0.000000000000e+00 0.000000000000e+00 0.000000000000e+00
5.000000000000e+02 0.000000000000e+00 2.550000000000e+01 0.000000000000e+00 0.000000000000e+00 0.000000000000e+00
4.990000000000e+02 0.000000000000e+00 2.650000000000e+01 0.000000000000e+00 0.000000000000e+00 0.000000000000e+00
5.000000000000e+02 0.000000000000e+00 2.650000000000e+01 0.000000000000e+00 0.000000000000e+00 0.000000000000e+00
4.990000000000e+02 0.000000000000e+00 2.750000000000e+01 0.000000000000e+00 0.000000000000e+00 0.000000000000e+00
5.000000000000e+02 0.000000000000e+00 2.750000000000e+01 0.000000000000e+00 0.000000000000e+00 0.000000000000e+00
4.990000000000e+02 0.000000000000e+00 2.850000000000e+01 0.000000000000e+00 0.000000000000e+00 0.000000000000e+00
5.000000000000e+02 0.000000000000e+00 2.850000000000e+01 0.000000000000e+00 0.000000000000e+00 0.000000000000e+00
4.990000000000e+02 0.000000000000e+00 2.950000000000e+01 0.000000000000e+00 0.000000000000e+00 0.000000000000e+00
5.000000000000e+02 0.000000000000e+00 2.950000000000e+01 0.000000000000e+00 0.000000000000e+00 0.000000000000e+00
VARIABLES = "X","Y","Z",VELOCITY1_X,VELOCITY1_Y,VELOCITY1_Z
ZONE T="1.797693134862e+308s", 
4.990000000000e+02 0.000000000000e+00 5.000000000000e-01 7.486937784054e-10 -7.460013258699e-13 0.000000000000e+00
5.000000000000e+02 0.000000000000e+00 5.000000000000e-01 7.501856406158e-10 -7.459575716426e-13 0.000000000000e+00
4.990000000000e+02 0.000000000000e+00 1.500000000000e+00 3.786628785253e-08 -3.922230815701e-11 0.000000000000e+00
5.000000000000e+02 0.000000000000e+00 1.500000000000e+00 3.794174100418e-08 -3.921999646376e-11 0.000000000000e+00
4.990000000000e+02 0.000000000000e+00 2.500000000000e+00 1.614878192354e-09 -7.856801225047e-11 0.000000000000e+00
5.000000000000e+02 0.000000000000e+00 2.500000000000e+00 1.618096037204e-09 -7.856341720833e-11 0.000000000000e+00
4.990000000000e+02 0.000000000000e+00 3.500000000000e+00 6.137151088084e-09 -8.629251498037e-11 0.000000000000e+00
5.000000000000e+02 0.000000000000e+00 3.500000000000e+00 6.149380257949e-09 -8.628746656867e-11 0.000000000000e+00
4.990000000000e+02 0.000000000000e+00 4.500000000000e+00 3.367041547521e-08 -1.259586978950e-10 0.000000000000e+00
5.000000000000e+02 0.000000000000e+00 4.500000000000e+00 3.373750891205e-08 -1.259513203118e-10 0.000000000000e+00
4.990000000000e+02 0.000000000000e+00 5.500000000000e+00 8.037168306457e-08 -2.395997260615e-10 0.000000000000e+00
5.000000000000e+02 0.000000000000e+00 5.500000000000e+00 8.053183603132e-08 -2.395856946941e-10 0.000000000000e+00
4.990000000000e+02 0.000000000000e+00 6.500000000000e+00 9.394946030131e-09 -3.290585620644e-10 0.000000000000e+00
5.000000000000e+02 0.000000000000e+00 6.500000000000e+00 9.413666936001e-09 -3.290394040440e-10 0.000000000000e+00
4.990000000000e+02 0.000000000000e+00 7.500000000000e+00 1.315905265361e-08 -3.515332109453e-10 0.000000000000e+00
5.000000000000e+02 0.000000000000e+00 7.500000000000e+00 1.318527439364e-08 -3.515127526400e-10 0.000000000000e+00
4.990000000000e+02 0.000000000000e+00 8.500000000000e+00 2.194593551130e-09 -3.668336853131e-10 0.000000000000e+00
5.000000000000e+02 0.000000000000e+00 8.500000000000e+00 2.198966719078e-09 -3.668123051377e-10 0.000000000000e+00
4.990000000000e+02 0.000000000000e+00 9.500000000000e+00 2.543650836291e-08 -3.943677227657e-10 0.000000000000e+00
5.000000000000e+02 0.000000000000e+00 9.500000000000e+00 2.548719753989e-08 -3.943447231728e-10 0.000000000000e+00
4.990000000000e+02 0.000000000000e+00 1.050000000000e+01 8.507078837148e-10 -4.205665028849e-10 0.000000000000e+00
5.000000000000e+02 0.000000000000e+00 1.050000000000e+01 8.524031806592e-10 -4.205420459592e-10 0.000000000000e+00
4.990000000000e+02 0.000000000000e+00 1.150000000000e+01 7.483098584370e-07 -1.167183113544e-09 0.000000000000e+00
5.000000000000e+02 0.000000000000e+00 1.150000000000e+01 7.498012625939e-07 -1.167117318972e-09 0.000000000000e+00
4.990000000000e+02 0.000000000000e+00 1.250000000000e+01 8.178633497946e-09 -1.921228430900e-09 0.000000000000e+00
5.000000000000e+02 0.000000000000e+00 1.250000000000e+01 8.194933892612e-09 -1.921120368031e-09 0.000000000000e+00
4.990000000000e+02 0.000000000000e+00 1.350000000000e+01 3.188477055011e-08 -1.961159462847e-09 0.000000000000e+00
5.000000000000e+02 0.000000000000e+00 1.350000000000e+01 3.194832160979e-08 -1.961049180429e-09 0.000000000000e+00
4.990000000000e+02 0.000000000000e+00 1.450000000000e+01 1.771933302004e-07 -2.169548123517e-09 0.000000000000e+00
5.000000000000e+02 0.000000000000e+00 1.450000000000e+01 1.775465074975e-07 -2.169426692859e-09 0.000000000000e+00
4.990000000000e+02 0.000000000000e+00 1.550000000000e+01 4.485660093999e-10 -2.346628584145e-09 0.000000000000e+00
5.000000000000e+02 0.000000000000e+00 1.550000000000e+01 4.494602104915e-10 -2.346497203071e-09 0.000000000000e+00
4.990000000000e+02 0.000000000000e+00 1.650000000000e+01 1.016502980202e-10 -2.347177819605e-09 0.000000000000e+00
5.000000000000e+02 0.000000000000e+00 1.650000000000e+01 1.018532895940e-10 -2.347046418021e-09 0.000000000000e+00
4.990000000000e+02 0.000000000000e+00 1.750000000000e+01 3.150719669012e-07 -2.663429145360e-09 0.000000000000e+00
5.000000000000e+02 0.000000000000e+00 1.750000000000e+01 3.157042671485e-07 -2.663314657915e-09 0.000000000000e+00
4.990000000000e+02 0.000000000000e+00 1.850000000000e+01 8.230775157469e-09 -2.987893124608e-09 0.000000000000e+00
5.000000000000e+02 0.000000000000e+00 1.850000000000e+01 8.247293343463e-09 -2.987782762441e-09 0.000000000000e+00
4.990000000000e+02 0.000000000000e+00 1.950000000000e+01 1.174198718267e-08 -3.007936718482e-09 0.000000000000e+00
5.000000000000e+02 0.000000000000e+00 1.950000000000e+01 1.176555291822e-08 -3.007826851622e-09 0.000000000000e+00
4.990000000000e+02 0.000000000000e+00 2.050000000000e+01 2.501545541838e-08 -3.044824961793e-09 0.000000000000e+00
5.000000000000e+02 0.000000000000e+00 2.050000000000e+01 2.506566185460e-08 -3.044716633564e-09 0.000000000000e+00
4.990000000000e+02 0.000000000000e+00 2.150000000000e+01 1.228790575728e-08 -3.082264621490e-09 0.000000000000e+00
5.000000000000e+02 0.000000000000e+00 2.150000000000e+01 1.231256823287e-08 -3.082157454412e-09 0.000000000000e+00
4.990000000000e+02 0.000000000000e+00 2.250000000000e+01 1.757042199331e-09 -3.096361460792e-09 0.000000000000e+00
5.000000000000e+02 0.000000000000e+00 2.250000000000e+01 1.760568876018e-09 -3.096254729377e-09 0.000000000000e+00
4.990000000000e+02 0.000000000000e+00 2.350000000000e+01 4.925007133190e-08 -3.147563903900e-09 0.000000000000e+00
5.000000000000e+02 0.000000000000e+00 2.350000000000e+01 4.934894633122e-08 -3.147458854217e-09 0.000000000000e+00
4.990000000000e+02 0.000000000000e+00 2.450000000000e+01 6.193094397511e-09 -3.203228930308e-09 0.000000000000e+00
5.000000000000e+02 0.000000000000e+00 2.450000000000e+01 6.205527934100e-09 -3.203126396366e-09 0.000000000000e+00
4.990000000000e+02 0.000000000000e+00 2.550000000000e+01 4.340145432764e-07 -3.645157745304e-09 0.000000000000e+00
5.000000000000e+02 0.000000000000e+00 2.550000000000e+01 4.348859509892e-07 -3.645072900707e-09 0.000000000000e+00
4.990000000000e+02 0.000000000000e+00 2.650000000000e+01 2.691482045630e-07 -4.351154658851e-09 0.000000000000e+00
5.000000000000e+02 0.000000000000e+00 2.650000000000e+01 2.696885999244e-07 -4.351103524688e-09 0.000000000000e+00
4.990000000000e+02 0.000000000000e+00 2.750000000000e+01 5.556660881887e-07 -5.179239234699e-09 0.000000000000e+00
5.000000000000e+02 0.000000000000e+00 2.750000000000e+01 5.567817601065e-07 -5.179223842747e-09 0.000000000000e+00
4.990000000000e+02 0.000000000000e+00 2.850000000000e+01 1.434738674409e-08 -5.751571199236e-09 0.000000000000e+00
5.000000000000e+02 0.000000000000e+00 2.850000000000e+01 1.437619360568e-08 -5.751570840827e-09 0.000000000000e+00
4.990000000000e+02 0.000000000000e+00 2.950000000000e+01 1.809752864866e-09 -5.767793427289e-09 0.000000000000e+00
5.000000000000e+02 0.000000000000e+00 2.950000000000e+01 1.813386491984e-09 -5.767793351134e-09 0.000000000000e+00
