VARIABLES = "X","Y","Z",VELOCITY1_X,VELOCITY1_Y,VELOCITY1_Z
ZONE T="0.000000000000e+00s", 
8.990000000000e+02 0.000000000000e+00 5.000000000000e-01 0.000000000000e+00 0.000000000000e+00 0.000000000000e+00
9.000000000000e+02 0.000000000000e+00 5.000000000000e-01 0.000000000000e+00 0.000000000000e+00 0.000000000000e+00
8.990000000000e+02 0.000000000000e+00 1.500000000000e+00 0.000000000000e+00 0.000000000000e+00 0.000000000000e+00
9.000000000000e+02 0.000000000000e+00 1.500000000000e+00 0.000000000000e+00 0.000000000000e+00 0.000000000000e+00
8.990000000000e+02 0.000000000000e+00 2.500000000000e+00 0.000000000000e+00 0.000000000000e+00 0.000000000000e+00
9.000000000000e+02 0.000000000000e+00 2.500000000000e+00 0.000000000000e+00 0.000000000000e+00 0.000000000000e+00
8.990000000000e+02 0.000000000000e+00 3.500000000000e+00 0.000000000000e+00 0.000000000000e+00 0.000000000000e+00
9.000000000000e+02 0.000000000000e+00 3.500000000000e+00 0.000000000000e+00 0.000000000000e+00 0.000000000000e+00
8.990000000000e+02 0.000000000000e+00 4.500000000000e+00 0.000000000000e+00 0.000000000000e+00 0.000000000000e+00
9.000000000000e+02 0.000000000000e+00 4.500000000000e+00 0.000000000000e+00 0.000000000000e+00 0.000000000000e+00
8.990000000000e+02 0.000000000000e+00 5.500000000000e+00 0.000000000000e+00 0.000000000000e+00 0.000000000000e+00
9.000000000000e+02 0.000000000000e+00 5.500000000000e+00 0.000000000000e+00 0.000000000000e+00 0.000000000000e+00
8.990000000000e+02 0.000000000000e+00 6.500000000000e+00 0.000000000000e+00 0.000000000000e+00 0.000000000000e+00
9.000000000000e+02 0.000000000000e+00 6.500000000000e+00 0.000000000000e+00 0.000000000000e+00 0.000000000000e+00
8.990000000000e+02 0.000000000000e+00 7.500000000000e+00 0.000000000000e+00 0.000000000000e+00 0.000000000000e+00
9.000000000000e+02 0.000000000000e+00 7.500000000000e+00 0.000000000000e+00 0.000000000000e+00 0.000000000000e+00
8.990000000000e+02 0.000000000000e+00 8.500000000000e+00 0.000000000000e+00 0.000000000000e+00 0.000000000000e+00
9.000000000000e+02 0.000000000000e+00 8.500000000000e+00 0.000000000000e+00 0.000000000000e+00 0.000000000000e+00
8.990000000000e+02 0.000000000000e+00 9.500000000000e+00 0.000000000000e+00 0.000000000000e+00 0.000000000000e+00
9.000000000000e+02 0.000000000000e+00 9.500000000000e+00 0.000000000000e+00 0.000000000000e+00 0.000000000000e+00
8.990000000000e+02 0.000000000000e+00 1.050000000000e+01 0.000000000000e+00 0.000000000000e+00 0.000000000000e+00
9.000000000000e+02 0.000000000000e+00 1.050000000000e+01 0.000000000000e+00 0.000000000000e+00 0.000000000000e+00
8.990000000000e+02 0.000000000000e+00 1.150000000000e+01 0.000000000000e+00 0.000000000000e+00 0.000000000000e+00
9.000000000000e+02 0.000000000000e+00 1.150000000000e+01 0.000000000000e+00 0.000000000000e+00 0.000000000000e+00
8.990000000000e+02 0.000000000000e+00 1.250000000000e+01 0.000000000000e+00 0.000000000000e+00 0.000000000000e+00
9.000000000000e+02 0.000000000000e+00 1.250000000000e+01 0.000000000000e+00 0.000000000000e+00 0.000000000000e+00
8.990000000000e+02 0.000000000000e+00 1.350000000000e+01 0.000000000000e+00 0.000000000000e+00 0.000000000000e+00
9.000000000000e+02 0.000000000000e+00 1.350000000000e+01 0.000000000000e+00 0.000000000000e+00 0.000000000000e+00
8.990000000000e+02 0.000000000000e+00 1.450000000000e+01 0.000000000000e+00 0.000000000000e+00 0.000000000000e+00
9.000000000000e+02 0.000000000000e+00 1.450000000000e+01 0.000000000000e+00 0.000000000000e+00 0.000000000000e+00
8.990000000000e+02 0.000000000000e+00 1.550000000000e+01 0.000000000000e+00 0.000000000000e+00 0.000000000000e+00
9.000000000000e+02 0.000000000000e+00 1.550000000000e+01 0.000000000000e+00 0.000000000000e+00 0.000000000000e+00
8.990000000000e+02 0.000000000000e+00 1.650000000000e+01 0.000000000000e+00 0.000000000000e+00 0.000000000000e+00
9.000000000000e+02 0.000000000000e+00 1.650000000000e+01 0.000000000000e+00 0.000000000000e+00 0.000000000000e+00
8.990000000000e+02 0.000000000000e+00 1.750000000000e+01 0.000000000000e+00 0.000000000000e+00 0.000000000000e+00
9.000000000000e+02 0.000000000000e+00 1.750000000000e+01 0.000000000000e+00 0.000000000000e+00 0.000000000000e+00
8.990000000000e+02 0.000000000000e+00 1.850000000000e+01 0.000000000000e+00 0.000000000000e+00 0.000000000000e+00
9.000000000000e+02 0.000000000000e+00 1.850000000000e+01 0.000000000000e+00 0.000000000000e+00 0.000000000000e+00
8.990000000000e+02 0.000000000000e+00 1.950000000000e+01 0.000000000000e+00 0.000000000000e+00 0.000000000000e+00
9.000000000000e+02 0.000000000000e+00 1.950000000000e+01 0.000000000000e+00 0.000000000000e+00 0.000000000000e+00
8.990000000000e+02 0.000000000000e+00 2.050000000000e+01 0.000000000000e+00 0.000000000000e+00 0.000000000000e+00
9.000000000000e+02 0.000000000000e+00 2.050000000000e+01 0.000000000000e+00 0.000000000000e+00 0.000000000000e+00
8.990000000000e+02 0.000000000000e+00 2.150000000000e+01 0.000000000000e+00 0.000000000000e+00 0.000000000000e+00
9.000000000000e+02 0.000000000000e+00 2.150000000000e+01 0.000000000000e+00 0.000000000000e+00 0.000000000000e+00
8.990000000000e+02 0.000000000000e+00 2.250000000000e+01 0.000000000000e+00 0.000000000000e+00 0.000000000000e+00
9.000000000000e+02 0.000000000000e+00 2.250000000000e+01 0.000000000000e+00 0.000000000000e+00 0.000000000000e+00
8.990000000000e+02 0.000000000000e+00 2.350000000000e+01 0.000000000000e+00 0.000000000000e+00 0.000000000000e+00
9.000000000000e+02 0.000000000000e+00 2.350000000000e+01 0.000000000000e+00 0.000000000000e+00 0.000000000000e+00
8.990000000000e+02 0.000000000000e+00 2.450000000000e+01 0.000000000000e+00 0.000000000000e+00 0.000000000000e+00
9.000000000000e+02 0.000000000000e+00 2.450000000000e+01 0.000000000000e+00 0.000000000000e+00 0.000000000000e+00
8.990000000000e+02 0.000000000000e+00 2.550000000000e+01 0.000000000000e+00 0.000000000000e+00 0.000000000000e+00
9.000000000000e+02 0.000000000000e+00 2.550000000000e+01 0.000000000000e+00 0.000000000000e+00 0.000000000000e+00
8.990000000000e+02 0.000000000000e+00 2.650000000000e+01 0.000000000000e+00 0.000000000000e+00 0.000000000000e+00
9.000000000000e+02 0.000000000000e+00 2.650000000000e+01 0.000000000000e+00 0.000000000000e+00 0.000000000000e+00
8.990000000000e+02 0.000000000000e+00 2.750000000000e+01 0.000000000000e+00 0.000000000000e+00 0.000000000000e+00
9.000000000000e+02 0.000000000000e+00 2.750000000000e+01 0.000000000000e+00 0.000000000000e+00 0.000000000000e+00
8.990000000000e+02 0.000000000000e+00 2.850000000000e+01 0.000000000000e+00 0.000000000000e+00 0.000000000000e+00
9.000000000000e+02 0.000000000000e+00 2.850000000000e+01 0.000000000000e+00 0.000000000000e+00 0.000000000000e+00
8.990000000000e+02 0.000000000000e+00 2.950000000000e+01 0.000000000000e+00 0.000000000000e+00 0.000000000000e+00
9.000000000000e+02 0.000000000000e+00 2.950000000000e+01 0.000000000000e+00 0.000000000000e+00 0.000000000000e+00
VARIABLES = "X","Y","Z",VELOCITY1_X,VELOCITY1_Y,VELOCITY1_Z
ZONE T="1.797693134862e+308s", 
8.990000000000e+02 0.000000000000e+00 5.000000000000e-01 1.296403086124e-09 -4.713661564747e-13 0.000000000000e+00
9.000000000000e+02 0.000000000000e+00 5.000000000000e-01 1.297340585564e-09 -4.684294691671e-13 0.000000000000e+00
8.990000000000e+02 0.000000000000e+00 1.500000000000e+00 6.556763597782e-08 -2.478356625731e-11 0.000000000000e+00
9.000000000000e+02 0.000000000000e+00 1.500000000000e+00 6.561505291126e-08 -2.462917245950e-11 0.000000000000e+00
8.990000000000e+02 0.000000000000e+00 2.500000000000e+00 2.796293244082e-09 -4.964306569517e-11 0.000000000000e+00
9.000000000000e+02 0.000000000000e+00 2.500000000000e+00 2.798315843755e-09 -4.933384388896e-11 0.000000000000e+00
8.990000000000e+02 0.000000000000e+00 3.500000000000e+00 1.062802939575e-08 -5.453152369971e-11 0.000000000000e+00
9.000000000000e+02 0.000000000000e+00 3.500000000000e+00 1.063572710740e-08 -5.419196922361e-11 0.000000000000e+00
8.990000000000e+02 0.000000000000e+00 4.500000000000e+00 5.831050359041e-08 -7.964546444090e-11 0.000000000000e+00
9.000000000000e+02 0.000000000000e+00 4.500000000000e+00 5.835275324602e-08 -7.915024505942e-11 0.000000000000e+00
8.990000000000e+02 0.000000000000e+00 5.500000000000e+00 1.391889909192e-07 -1.516019860462e-10 0.000000000000e+00
9.000000000000e+02 0.000000000000e+00 5.500000000000e+00 1.392898531806e-07 -1.506608798215e-10 0.000000000000e+00
8.990000000000e+02 0.000000000000e+00 6.500000000000e+00 1.627055737912e-08 -2.082483089980e-10 0.000000000000e+00
9.000000000000e+02 0.000000000000e+00 6.500000000000e+00 1.628235003895e-08 -2.069562726827e-10 0.000000000000e+00
8.990000000000e+02 0.000000000000e+00 7.500000000000e+00 2.279110748579e-08 -2.224961616570e-10 0.000000000000e+00
9.000000000000e+02 0.000000000000e+00 7.500000000000e+00 2.280764296663e-08 -2.211160995089e-10 0.000000000000e+00
8.990000000000e+02 0.000000000000e+00 8.500000000000e+00 3.801330709742e-09 -2.322037183139e-10 0.000000000000e+00
9.000000000000e+02 0.000000000000e+00 8.500000000000e+00 3.804092164787e-09 -2.307638058352e-10 0.000000000000e+00
8.990000000000e+02 0.000000000000e+00 9.500000000000e+00 4.407402834225e-08 -2.497656706313e-10 0.000000000000e+00
9.000000000000e+02 0.000000000000e+00 9.500000000000e+00 4.410618880374e-08 -2.482188955505e-10 0.000000000000e+00
8.990000000000e+02 0.000000000000e+00 1.050000000000e+01 1.474253369490e-09 -2.664822989127e-10 0.000000000000e+00
9.000000000000e+02 0.000000000000e+00 1.050000000000e+01 1.475331335098e-09 -2.648339263090e-10 0.000000000000e+00
8.990000000000e+02 0.000000000000e+00 1.150000000000e+01 1.298052882778e-06 -7.502636386235e-10 0.000000000000e+00
9.000000000000e+02 0.000000000000e+00 1.150000000000e+01 1.299014315278e-06 -7.457880272208e-10 0.000000000000e+00
8.990000000000e+02 0.000000000000e+00 1.250000000000e+01 1.418788219656e-08 -1.238822693707e-09 0.000000000000e+00
9.000000000000e+02 0.000000000000e+00 1.250000000000e+01 1.419839926201e-08 -1.231492067399e-09 0.000000000000e+00
8.990000000000e+02 0.000000000000e+00 1.350000000000e+01 5.533759724121e-08 -1.264882233479e-09 0.000000000000e+00
9.000000000000e+02 0.000000000000e+00 1.350000000000e+01 5.537887310829e-08 -1.257402301628e-09 0.000000000000e+00
8.990000000000e+02 0.000000000000e+00 1.450000000000e+01 3.075645964231e-07 -1.401133069200e-09 0.000000000000e+00
9.000000000000e+02 0.000000000000e+00 1.450000000000e+01 3.077943753329e-07 -1.392876532972e-09 0.000000000000e+00
8.990000000000e+02 0.000000000000e+00 1.550000000000e+01 7.795976919294e-10 -1.516944740220e-09 0.000000000000e+00
9.000000000000e+02 0.000000000000e+00 1.550000000000e+01 7.801901227522e-10 -1.508028916689e-09 0.000000000000e+00
8.990000000000e+02 0.000000000000e+00 1.650000000000e+01 1.793880734796e-10 -1.517360394783e-09 0.000000000000e+00
9.000000000000e+02 0.000000000000e+00 1.650000000000e+01 1.795516894044e-10 -1.508443111983e-09 0.000000000000e+00
8.990000000000e+02 0.000000000000e+00 1.750000000000e+01 5.798576725448e-07 -1.899029727898e-09 0.000000000000e+00
9.000000000000e+02 0.000000000000e+00 1.750000000000e+01 5.806218974750e-07 -1.890748215493e-09 0.000000000000e+00
8.990000000000e+02 0.000000000000e+00 1.850000000000e+01 1.514892104668e-08 -2.290602370778e-09 0.000000000000e+00
9.000000000000e+02 0.000000000000e+00 1.850000000000e+01 1.516889731819e-08 -2.282973287081e-09 0.000000000000e+00
8.990000000000e+02 0.000000000000e+00 1.950000000000e+01 2.162160186947e-08 -2.314897920587e-09 0.000000000000e+00
9.000000000000e+02 0.000000000000e+00 1.950000000000e+01 2.165022162883e-08 -2.307310810782e-09 0.000000000000e+00
8.990000000000e+02 0.000000000000e+00 2.050000000000e+01 4.607802440405e-08 -2.359746564204e-09 0.000000000000e+00
9.000000000000e+02 0.000000000000e+00 2.050000000000e+01 4.613917312165e-08 -2.352238913456e-09 0.000000000000e+00
8.990000000000e+02 0.000000000000e+00 2.150000000000e+01 2.263809866928e-08 -2.405326175897e-09 0.000000000000e+00
9.000000000000e+02 0.000000000000e+00 2.150000000000e+01 2.266818371317e-08 -2.397900236505e-09 0.000000000000e+00
8.990000000000e+02 0.000000000000e+00 2.250000000000e+01 3.238737690788e-09 -2.422536285559e-09 0.000000000000e+00
9.000000000000e+02 0.000000000000e+00 2.250000000000e+01 3.243060391247e-09 -2.415141893745e-09 0.000000000000e+00
8.990000000000e+02 0.000000000000e+00 2.350000000000e+01 9.096170664097e-08 -2.486279695950e-09 0.000000000000e+00
9.000000000000e+02 0.000000000000e+00 2.350000000000e+01 9.108504328865e-08 -2.479020771778e-09 0.000000000000e+00
8.990000000000e+02 0.000000000000e+00 2.450000000000e+01 1.143981236772e-08 -2.555616094058e-09 0.000000000000e+00
9.000000000000e+02 0.000000000000e+00 2.450000000000e+01 1.145534063332e-08 -2.548504941669e-09 0.000000000000e+00
8.990000000000e+02 0.000000000000e+00 2.550000000000e+01 8.021371199281e-07 -3.109053971440e-09 0.000000000000e+00
9.000000000000e+02 0.000000000000e+00 2.550000000000e+01 8.032305755297e-07 -3.103167843383e-09 0.000000000000e+00
8.990000000000e+02 0.000000000000e+00 2.650000000000e+01 4.974379848721e-07 -3.993153554330e-09 0.000000000000e+00
9.000000000000e+02 0.000000000000e+00 2.650000000000e+01 4.981161188244e-07 -3.989222628901e-09 0.000000000000e+00
8.990000000000e+02 0.000000000000e+00 2.750000000000e+01 1.026985699789e-06 -5.030267963293e-09 0.000000000000e+00
9.000000000000e+02 0.000000000000e+00 2.750000000000e+01 1.028385817079e-06 -5.028632108437e-09 0.000000000000e+00
8.990000000000e+02 0.000000000000e+00 2.850000000000e+01 2.651697640789e-08 -5.747018091456e-09 0.000000000000e+00
9.000000000000e+02 0.000000000000e+00 2.850000000000e+01 2.655312803437e-08 -5.746968054385e-09 0.000000000000e+00
8.990000000000e+02 0.000000000000e+00 2.950000000000e+01 3.344808495810e-09 -5.767334664856e-09 0.000000000000e+00
9.000000000000e+02 0.000000000000e+00 2.950000000000e+01 3.349368662621e-09 -5.767329621301e-09 0.000000000000e+00
