 TITLE = "Profiles along polylines"
 VARIABLES = "DIST" "SATURATION1" 
 ZONE T="TIME=0.000000000000e+00"
0.000000000000e+00 1.000000000000e+00 
3.853325904026e-01 1.000000000000e+00 
7.668118569391e-01 1.000000000000e+00 
1.144476331261e+00 1.000000000000e+00 
1.518364160756e+00 1.000000000000e+00 
1.888513111735e+00 1.000000000000e+00 
2.254960572587e+00 1.000000000000e+00 
2.617743559071e+00 1.000000000000e+00 
2.976898715045e+00 1.000000000000e+00 
3.332462317634e+00 1.000000000000e+00 
3.684470284690e+00 1.000000000000e+00 
4.032958172690e+00 1.000000000000e+00 
4.377961182086e+00 1.000000000000e+00 
4.719514161942e+00 1.000000000000e+00 
5.057651612557e+00 1.000000000000e+00 
5.392407687905e+00 1.000000000000e+00 
5.723816202601e+00 1.000000000000e+00 
6.051910631882e+00 1.000000000000e+00 
6.376724116257e+00 1.000000000000e+00 
6.698289465825e+00 1.000000000000e+00 
7.016639162519e+00 1.000000000000e+00 
7.331805362068e+00 1.000000000000e+00 
7.643819898382e+00 1.000000000000e+00 
7.952714289854e+00 1.000000000000e+00 
8.258519736812e+00 1.000000000000e+00 
8.561267130059e+00 1.000000000000e+00 
8.860987050331e+00 1.000000000000e+00 
9.157709770050e+00 1.000000000000e+00 
9.451465261671e+00 1.000000000000e+00 
9.742283199200e+00 1.000000000000e+00 
1.003019295747e+01 1.000000000000e+00 
1.031522361810e+01 1.000000000000e+00 
1.059740397310e+01 1.000000000000e+00 
1.087676252393e+01 1.000000000000e+00 
1.115332748959e+01 1.000000000000e+00 
1.142712680544e+01 1.000000000000e+00 
1.169818812676e+01 1.000000000000e+00 
1.196653883645e+01 1.000000000000e+00 
1.223220603937e+01 1.000000000000e+00 
1.249521657012e+01 1.000000000000e+00 
1.275559699610e+01 1.000000000000e+00 
1.301337361853e+01 1.000000000000e+00 
1.326857247535e+01 1.000000000000e+00 
1.352121934215e+01 1.000000000000e+00 
1.377133973956e+01 1.000000000000e+00 
1.401895893383e+01 1.000000000000e+00 
1.426410193533e+01 1.000000000000e+00 
1.450679350577e+01 1.000000000000e+00 
1.474705816096e+01 1.000000000000e+00 
1.498492016905e+01 1.000000000000e+00 
1.522040355766e+01 1.000000000000e+00 
1.545353211423e+01 1.000000000000e+00 
1.568432938408e+01 1.000000000000e+00 
1.591281867978e+01 1.000000000000e+00 
1.613902308343e+01 1.000000000000e+00 
1.636296544468e+01 1.000000000000e+00 
1.658466838309e+01 1.000000000000e+00 
1.680415429045e+01 1.000000000000e+00 
1.702144533761e+01 1.000000000000e+00 
1.723656347436e+01 1.000000000000e+00 
1.744953042940e+01 1.000000000000e+00 
1.766036771480e+01 1.000000000000e+00 
1.786909662801e+01 1.000000000000e+00 
1.807573825396e+01 1.000000000000e+00 
1.828031346254e+01 1.000000000000e+00 
1.848284291744e+01 1.000000000000e+00 
1.868334707792e+01 1.000000000000e+00 
1.888184619627e+01 1.000000000000e+00 
1.907836032415e+01 1.000000000000e+00 
1.927290931213e+01 1.000000000000e+00 
1.946551281146e+01 1.000000000000e+00 
1.965619027579e+01 1.000000000000e+00 
1.984496096516e+01 1.000000000000e+00 
2.003184394756e+01 1.000000000000e+00 
2.021685810057e+01 1.000000000000e+00 
2.040002211069e+01 1.000000000000e+00 
2.058135447938e+01 1.000000000000e+00 
2.076087352447e+01 1.000000000000e+00 
2.093859737947e+01 1.000000000000e+00 
2.111454399713e+01 1.000000000000e+00 
2.128873114865e+01 1.000000000000e+00 
2.146117642951e+01 1.000000000000e+00 
2.163189725849e+01 1.000000000000e+00 
2.180091087897e+01 1.000000000000e+00 
2.196823436244e+01 1.000000000000e+00 
2.213388460967e+01 1.000000000000e+00 
2.229787835416e+01 1.000000000000e+00 
2.246023216093e+01 1.000000000000e+00 
2.262096242998e+01 1.000000000000e+00 
2.278008539728e+01 1.000000000000e+00 
2.293761713360e+01 1.000000000000e+00 
2.309357355226e+01 1.000000000000e+00 
2.324797040780e+01 1.000000000000e+00 
2.340082329468e+01 1.000000000000e+00 
2.355214765275e+01 1.000000000000e+00 
2.370195876802e+01 1.000000000000e+00 
2.385027177131e+01 1.000000000000e+00 
2.399710164360e+01 1.000000000000e+00 
2.414246321895e+01 1.000000000000e+00 
2.428637117854e+01 1.000000000000e+00 
2.442884005824e+01 1.000000000000e+00 
2.456988424912e+01 1.000000000000e+00 
2.470951799827e+01 1.000000000000e+00 
2.484775540934e+01 1.000000000000e+00 
2.498461044543e+01 1.000000000000e+00 
2.512009693189e+01 1.000000000000e+00 
2.525422855236e+01 1.000000000000e+00 
2.538701885608e+01 1.000000000000e+00 
2.551848125833e+01 1.000000000000e+00 
2.564862903640e+01 1.000000000000e+00 
2.577747533681e+01 1.000000000000e+00 
2.590503317567e+01 1.000000000000e+00 
2.603131543460e+01 1.000000000000e+00 
2.615633487010e+01 1.000000000000e+00 
2.628010411157e+01 1.000000000000e+00 
2.640263566165e+01 1.000000000000e+00 
2.652394189646e+01 1.000000000000e+00 
2.664403506819e+01 1.000000000000e+00 
2.676292730749e+01 1.000000000000e+00 
2.688063062371e+01 1.000000000000e+00 
2.699715690733e+01 1.000000000000e+00 
2.711251792783e+01 1.000000000000e+00 
2.722672533837e+01 1.000000000000e+00 
2.733979067584e+01 1.000000000000e+00 
2.745172536099e+01 1.000000000000e+00 
2.756254069846e+01 1.000000000000e+00 
2.767224788139e+01 1.000000000000e+00 
2.778085799355e+01 1.000000000000e+00 
2.788838200492e+01 1.000000000000e+00 
2.799483077616e+01 1.000000000000e+00 
2.810021506075e+01 1.000000000000e+00 
2.820454550273e+01 1.000000000000e+00 
2.830783263881e+01 1.000000000000e+00 
2.841008690281e+01 1.000000000000e+00 
2.851131862540e+01 1.000000000000e+00 
2.861153803179e+01 1.000000000000e+00 
2.871075524376e+01 1.000000000000e+00 
2.880898028173e+01 1.000000000000e+00 
2.890622306906e+01 1.000000000000e+00 
2.900249342943e+01 1.000000000000e+00 
2.909780108672e+01 1.000000000000e+00 
2.919215566688e+01 1.000000000000e+00 
2.928556669997e+01 1.000000000000e+00 
2.937804362425e+01 1.000000000000e+00 
2.946959577909e+01 1.000000000000e+00 
2.956023241146e+01 1.000000000000e+00 
2.964996267766e+01 1.000000000000e+00 
2.973879564079e+01 1.000000000000e+00 
2.982674027474e+01 1.000000000000e+00 
2.991380546382e+01 1.000000000000e+00 
3.000000000000e+01 1.000000000000e+00 
 TITLE = "Profiles along polylines"
 VARIABLES = "DIST" "SATURATION1" 
 ZONE T="TIME=1.797693134862e+308"
0.000000000000e+00 1.000000000000e+00 
3.853325904026e-01 1.000000000000e+00 
7.668118569391e-01 1.000000000000e+00 
1.144476331261e+00 1.000000000000e+00 
1.518364160756e+00 1.000000000000e+00 
1.888513111735e+00 1.000000000000e+00 
2.254960572587e+00 1.000000000000e+00 
2.617743559071e+00 1.000000000000e+00 
2.976898715045e+00 1.000000000000e+00 
3.332462317634e+00 1.000000000000e+00 
3.684470284690e+00 1.000000000000e+00 
4.032958172690e+00 1.000000000000e+00 
4.377961182086e+00 1.000000000000e+00 
4.719514161942e+00 1.000000000000e+00 
5.057651612557e+00 1.000000000000e+00 
5.392407687905e+00 1.000000000000e+00 
5.723816202601e+00 1.000000000000e+00 
6.051910631882e+00 1.000000000000e+00 
6.376724116257e+00 1.000000000000e+00 
6.698289465825e+00 1.000000000000e+00 
7.016639162519e+00 1.000000000000e+00 
7.331805362068e+00 1.000000000000e+00 
7.643819898382e+00 1.000000000000e+00 
7.952714289854e+00 1.000000000000e+00 
8.258519736812e+00 1.000000000000e+00 
8.561267130059e+00 1.000000000000e+00 
8.860987050331e+00 1.000000000000e+00 
9.157709770050e+00 1.000000000000e+00 
9.451465261671e+00 1.000000000000e+00 
9.742283199200e+00 1.000000000000e+00 
1.003019295747e+01 1.000000000000e+00 
1.031522361810e+01 1.000000000000e+00 
1.059740397310e+01 1.000000000000e+00 
1.087676252393e+01 1.000000000000e+00 
1.115332748959e+01 1.000000000000e+00 
1.142712680544e+01 1.000000000000e+00 
1.169818812676e+01 1.000000000000e+00 
1.196653883645e+01 1.000000000000e+00 
1.223220603937e+01 1.000000000000e+00 
1.249521657012e+01 1.000000000000e+00 
1.275559699610e+01 1.000000000000e+00 
1.301337361853e+01 1.000000000000e+00 
1.326857247535e+01 1.000000000000e+00 
1.352121934215e+01 1.000000000000e+00 
1.377133973956e+01 1.000000000000e+00 
1.401895893383e+01 1.000000000000e+00 
1.426410193533e+01 1.000000000000e+00 
1.450679350577e+01 1.000000000000e+00 
1.474705816096e+01 1.000000000000e+00 
1.498492016905e+01 1.000000000000e+00 
1.522040355766e+01 1.000000000000e+00 
1.545353211423e+01 1.000000000000e+00 
1.568432938408e+01 1.000000000000e+00 
1.591281867978e+01 1.000000000000e+00 
1.613902308343e+01 1.000000000000e+00 
1.636296544468e+01 1.000000000000e+00 
1.658466838309e+01 1.000000000000e+00 
1.680415429045e+01 1.000000000000e+00 
1.702144533761e+01 1.000000000000e+00 
1.723656347436e+01 1.000000000000e+00 
1.744953042940e+01 1.000000000000e+00 
1.766036771480e+01 1.000000000000e+00 
1.786909662801e+01 1.000000000000e+00 
1.807573825396e+01 1.000000000000e+00 
1.828031346254e+01 1.000000000000e+00 
1.848284291744e+01 1.000000000000e+00 
1.868334707792e+01 1.000000000000e+00 
1.888184619627e+01 1.000000000000e+00 
1.907836032415e+01 1.000000000000e+00 
1.927290931213e+01 1.000000000000e+00 
1.946551281146e+01 1.000000000000e+00 
1.965619027579e+01 1.000000000000e+00 
1.984496096516e+01 1.000000000000e+00 
2.003184394756e+01 1.000000000000e+00 
2.021685810057e+01 1.000000000000e+00 
2.040002211069e+01 1.000000000000e+00 
2.058135447938e+01 1.000000000000e+00 
2.076087352447e+01 1.000000000000e+00 
2.093859737947e+01 1.000000000000e+00 
2.111454399713e+01 1.000000000000e+00 
2.128873114865e+01 1.000000000000e+00 
2.146117642951e+01 1.000000000000e+00 
2.163189725849e+01 1.000000000000e+00 
2.180091087897e+01 1.000000000000e+00 
2.196823436244e+01 1.000000000000e+00 
2.213388460967e+01 1.000000000000e+00 
2.229787835416e+01 9.957006352939e-01 
2.246023216093e+01 9.642008330328e-01 
2.262096242998e+01 9.292681682160e-01 
2.278008539728e+01 8.955164836742e-01 
2.293761713360e+01 8.643686297913e-01 
2.309357355226e+01 8.361196745381e-01 
2.324797040780e+01 8.106447171839e-01 
2.340082329468e+01 7.876787269243e-01 
2.355214765275e+01 7.669288121153e-01 
2.370195876802e+01 7.481176789583e-01 
2.385027177131e+01 7.309982334444e-01 
2.399710164360e+01 7.153561882932e-01 
2.414246321895e+01 7.010079516594e-01 
2.428637117854e+01 6.877969488481e-01 
2.442884005824e+01 6.755897105083e-01 
2.456988424912e+01 6.642722579874e-01 
2.470951799827e+01 6.537469564215e-01 
2.484775540934e+01 6.439298538317e-01 
2.498461044543e+01 6.347484637490e-01 
2.512009693189e+01 6.261399303638e-01 
2.525422855236e+01 6.180495143577e-01 
2.538701885608e+01 6.104293421912e-01 
2.551848125833e+01 6.032373721092e-01 
2.564862903640e+01 5.964365368162e-01 
2.577747533681e+01 5.899940294526e-01 
2.590503317567e+01 5.838807075197e-01 
2.603131543460e+01 5.780705931865e-01 
2.615633487010e+01 5.725404519480e-01 
2.628010411157e+01 5.672694369135e-01 
2.640263566165e+01 5.622387867672e-01 
2.652394189646e+01 5.574315683878e-01 
2.664403506819e+01 5.528324565859e-01 
2.676292730749e+01 5.484275449925e-01 
2.688063062371e+01 5.442041831726e-01 
2.699715690733e+01 5.401508356969e-01 
2.711251792783e+01 5.362569600130e-01 
2.722672533837e+01 5.325128999129e-01 
2.733979067584e+01 5.289097926564e-01 
2.745172536099e+01 5.254394876224e-01 
2.756254069846e+01 5.220944748532e-01 
2.767224788139e+01 5.188678219805e-01 
2.778085799355e+01 5.157531185889e-01 
2.788838200492e+01 5.127444271322e-01 
2.799483077616e+01 5.098362391152e-01 
2.810021506075e+01 5.070234361649e-01 
2.820454550273e+01 5.043012554252e-01 
2.830783263881e+01 5.016652585067e-01 
2.841008690281e+01 4.991113036178e-01 
2.851131862540e+01 4.966355206566e-01 
2.861153803179e+01 4.942342888596e-01 
2.871075524376e+01 4.919042165490e-01 
2.880898028173e+01 4.896421228489e-01 
2.890622306906e+01 4.874450210961e-01 
2.900249342943e+01 4.853101039583e-01 
2.909780108672e+01 4.832347298741e-01 
2.919215566688e+01 4.812164106787e-01 
2.928556669997e+01 4.792528003343e-01 
2.937804362425e+01 4.773416846092e-01 
2.946959577909e+01 4.754809718768e-01 
2.956023241146e+01 4.736686844284e-01 
2.964996267766e+01 4.719029506099e-01 
2.973879564079e+01 4.701819976917e-01 
2.982674027474e+01 4.685041451949e-01 
2.991380546382e+01 4.668677988375e-01 
3.000000000000e+01 4.652714242875e-01 
