 TITLE = "Profiles along polylines"
 VARIABLES = "DIST" "SATURATION1" 
 ZONE T="TIME=0.000000000000e+00"
0.000000000000e+00 1.000000000000e+00 
0.000000000000e+00 1.000000000000e+00 
3.853325904026e-01 1.000000000000e+00 
3.853325904026e-01 1.000000000000e+00 
7.668118569391e-01 1.000000000000e+00 
7.668118569391e-01 1.000000000000e+00 
1.144476331261e+00 1.000000000000e+00 
1.144476331261e+00 1.000000000000e+00 
1.518364160756e+00 1.000000000000e+00 
1.518364160756e+00 1.000000000000e+00 
1.888513111735e+00 1.000000000000e+00 
1.888513111735e+00 1.000000000000e+00 
2.254960572587e+00 1.000000000000e+00 
2.254960572587e+00 1.000000000000e+00 
2.617743559071e+00 1.000000000000e+00 
2.617743559071e+00 1.000000000000e+00 
2.976898715045e+00 1.000000000000e+00 
2.976898715045e+00 1.000000000000e+00 
3.332462317634e+00 1.000000000000e+00 
3.332462317634e+00 1.000000000000e+00 
3.684470284690e+00 1.000000000000e+00 
3.684470284690e+00 1.000000000000e+00 
4.032958172690e+00 1.000000000000e+00 
4.032958172690e+00 1.000000000000e+00 
4.377961182086e+00 1.000000000000e+00 
4.377961182086e+00 1.000000000000e+00 
4.719514161942e+00 1.000000000000e+00 
4.719514161942e+00 1.000000000000e+00 
5.057651612557e+00 1.000000000000e+00 
5.057651612557e+00 1.000000000000e+00 
5.392407687905e+00 1.000000000000e+00 
5.392407687905e+00 1.000000000000e+00 
5.723816202601e+00 1.000000000000e+00 
5.723816202601e+00 1.000000000000e+00 
6.051910631882e+00 1.000000000000e+00 
6.051910631882e+00 1.000000000000e+00 
6.376724116257e+00 1.000000000000e+00 
6.376724116257e+00 1.000000000000e+00 
6.698289465825e+00 1.000000000000e+00 
6.698289465825e+00 1.000000000000e+00 
7.016639162519e+00 1.000000000000e+00 
7.016639162519e+00 1.000000000000e+00 
7.331805362068e+00 1.000000000000e+00 
7.331805362068e+00 1.000000000000e+00 
7.643819898382e+00 1.000000000000e+00 
7.643819898382e+00 1.000000000000e+00 
7.952714289854e+00 1.000000000000e+00 
7.952714289854e+00 1.000000000000e+00 
8.258519736812e+00 1.000000000000e+00 
8.258519736812e+00 1.000000000000e+00 
8.561267130059e+00 1.000000000000e+00 
8.561267130059e+00 1.000000000000e+00 
8.860987050331e+00 1.000000000000e+00 
8.860987050331e+00 1.000000000000e+00 
9.157709770050e+00 1.000000000000e+00 
9.157709770050e+00 1.000000000000e+00 
9.451465261671e+00 1.000000000000e+00 
9.451465261671e+00 1.000000000000e+00 
9.742283199200e+00 1.000000000000e+00 
9.742283199200e+00 1.000000000000e+00 
1.003019295747e+01 1.000000000000e+00 
1.003019295747e+01 1.000000000000e+00 
1.031522361810e+01 1.000000000000e+00 
1.031522361810e+01 1.000000000000e+00 
1.059740397310e+01 1.000000000000e+00 
1.059740397310e+01 1.000000000000e+00 
1.087676252393e+01 1.000000000000e+00 
1.087676252393e+01 1.000000000000e+00 
1.115332748959e+01 1.000000000000e+00 
1.115332748959e+01 1.000000000000e+00 
1.142712680544e+01 1.000000000000e+00 
1.142712680544e+01 1.000000000000e+00 
1.169818812676e+01 1.000000000000e+00 
1.169818812676e+01 1.000000000000e+00 
1.196653883645e+01 1.000000000000e+00 
1.196653883645e+01 1.000000000000e+00 
1.223220603937e+01 1.000000000000e+00 
1.223220603937e+01 1.000000000000e+00 
1.249521657012e+01 1.000000000000e+00 
1.249521657012e+01 1.000000000000e+00 
1.275559699610e+01 1.000000000000e+00 
1.275559699610e+01 1.000000000000e+00 
1.301337361853e+01 1.000000000000e+00 
1.301337361853e+01 1.000000000000e+00 
1.326857247535e+01 1.000000000000e+00 
1.326857247535e+01 1.000000000000e+00 
1.352121934215e+01 1.000000000000e+00 
1.352121934215e+01 1.000000000000e+00 
1.377133973956e+01 1.000000000000e+00 
1.377133973956e+01 1.000000000000e+00 
1.401895893383e+01 1.000000000000e+00 
1.401895893383e+01 1.000000000000e+00 
1.426410193533e+01 1.000000000000e+00 
1.426410193533e+01 1.000000000000e+00 
1.450679350577e+01 1.000000000000e+00 
1.450679350577e+01 1.000000000000e+00 
1.474705816096e+01 1.000000000000e+00 
1.474705816096e+01 1.000000000000e+00 
1.498492016905e+01 1.000000000000e+00 
1.498492016905e+01 1.000000000000e+00 
1.522040355766e+01 1.000000000000e+00 
1.522040355766e+01 1.000000000000e+00 
1.545353211423e+01 1.000000000000e+00 
1.545353211423e+01 1.000000000000e+00 
1.568432938408e+01 1.000000000000e+00 
1.568432938408e+01 1.000000000000e+00 
1.591281867978e+01 1.000000000000e+00 
1.591281867978e+01 1.000000000000e+00 
1.613902308343e+01 1.000000000000e+00 
1.613902308343e+01 1.000000000000e+00 
1.636296544468e+01 1.000000000000e+00 
1.636296544468e+01 1.000000000000e+00 
1.658466838309e+01 1.000000000000e+00 
1.658466838309e+01 1.000000000000e+00 
1.680415429045e+01 1.000000000000e+00 
1.680415429045e+01 1.000000000000e+00 
1.702144533761e+01 1.000000000000e+00 
1.702144533761e+01 1.000000000000e+00 
1.723656347436e+01 1.000000000000e+00 
1.723656347436e+01 1.000000000000e+00 
1.744953042940e+01 1.000000000000e+00 
1.744953042940e+01 1.000000000000e+00 
1.766036771480e+01 1.000000000000e+00 
1.766036771480e+01 1.000000000000e+00 
1.786909662801e+01 1.000000000000e+00 
1.786909662801e+01 1.000000000000e+00 
1.807573825396e+01 1.000000000000e+00 
1.807573825396e+01 1.000000000000e+00 
1.828031346254e+01 1.000000000000e+00 
1.828031346254e+01 1.000000000000e+00 
1.848284291744e+01 1.000000000000e+00 
1.848284291744e+01 1.000000000000e+00 
1.868334707792e+01 1.000000000000e+00 
1.868334707792e+01 1.000000000000e+00 
1.888184619627e+01 1.000000000000e+00 
1.888184619627e+01 1.000000000000e+00 
1.907836032415e+01 1.000000000000e+00 
1.907836032415e+01 1.000000000000e+00 
1.927290931213e+01 1.000000000000e+00 
1.927290931213e+01 1.000000000000e+00 
1.946551281146e+01 1.000000000000e+00 
1.946551281146e+01 1.000000000000e+00 
1.965619027579e+01 1.000000000000e+00 
1.965619027579e+01 1.000000000000e+00 
1.984496096516e+01 1.000000000000e+00 
1.984496096516e+01 1.000000000000e+00 
2.003184394756e+01 1.000000000000e+00 
2.003184394756e+01 1.000000000000e+00 
2.021685810057e+01 1.000000000000e+00 
2.021685810057e+01 1.000000000000e+00 
2.040002211069e+01 1.000000000000e+00 
2.040002211069e+01 1.000000000000e+00 
2.058135447938e+01 1.000000000000e+00 
2.058135447938e+01 1.000000000000e+00 
2.076087352447e+01 1.000000000000e+00 
2.076087352447e+01 1.000000000000e+00 
2.093859737947e+01 1.000000000000e+00 
2.093859737947e+01 1.000000000000e+00 
2.111454399713e+01 1.000000000000e+00 
2.111454399713e+01 1.000000000000e+00 
2.128873114865e+01 1.000000000000e+00 
2.128873114865e+01 1.000000000000e+00 
2.146117642951e+01 1.000000000000e+00 
2.146117642951e+01 1.000000000000e+00 
2.163189725849e+01 1.000000000000e+00 
2.163189725849e+01 1.000000000000e+00 
2.180091087897e+01 1.000000000000e+00 
2.180091087897e+01 1.000000000000e+00 
2.196823436244e+01 1.000000000000e+00 
2.196823436244e+01 1.000000000000e+00 
2.213388460967e+01 1.000000000000e+00 
2.213388460967e+01 1.000000000000e+00 
2.229787835416e+01 1.000000000000e+00 
2.229787835416e+01 1.000000000000e+00 
2.246023216093e+01 1.000000000000e+00 
2.246023216093e+01 1.000000000000e+00 
2.262096242998e+01 1.000000000000e+00 
2.262096242998e+01 1.000000000000e+00 
2.278008539728e+01 1.000000000000e+00 
2.278008539728e+01 1.000000000000e+00 
2.293761713360e+01 1.000000000000e+00 
2.293761713360e+01 1.000000000000e+00 
2.309357355226e+01 1.000000000000e+00 
2.309357355226e+01 1.000000000000e+00 
2.324797040780e+01 1.000000000000e+00 
2.324797040780e+01 1.000000000000e+00 
2.340082329468e+01 1.000000000000e+00 
2.340082329468e+01 1.000000000000e+00 
2.355214765275e+01 1.000000000000e+00 
2.355214765275e+01 1.000000000000e+00 
2.370195876802e+01 1.000000000000e+00 
2.370195876802e+01 1.000000000000e+00 
2.385027177131e+01 1.000000000000e+00 
2.385027177131e+01 1.000000000000e+00 
2.399710164360e+01 1.000000000000e+00 
2.399710164360e+01 1.000000000000e+00 
2.414246321895e+01 1.000000000000e+00 
2.414246321895e+01 1.000000000000e+00 
2.428637117854e+01 1.000000000000e+00 
2.428637117854e+01 1.000000000000e+00 
2.442884005824e+01 1.000000000000e+00 
2.442884005824e+01 1.000000000000e+00 
2.456988424912e+01 1.000000000000e+00 
2.456988424912e+01 1.000000000000e+00 
2.470951799827e+01 1.000000000000e+00 
2.470951799827e+01 1.000000000000e+00 
2.484775540934e+01 1.000000000000e+00 
2.484775540934e+01 1.000000000000e+00 
2.498461044543e+01 1.000000000000e+00 
2.498461044543e+01 1.000000000000e+00 
2.512009693189e+01 1.000000000000e+00 
2.512009693189e+01 1.000000000000e+00 
2.525422855236e+01 1.000000000000e+00 
2.525422855236e+01 1.000000000000e+00 
2.538701885608e+01 1.000000000000e+00 
2.538701885608e+01 1.000000000000e+00 
2.551848125833e+01 1.000000000000e+00 
2.551848125833e+01 1.000000000000e+00 
2.564862903640e+01 1.000000000000e+00 
2.564862903640e+01 1.000000000000e+00 
2.577747533681e+01 1.000000000000e+00 
2.577747533681e+01 1.000000000000e+00 
2.590503317567e+01 1.000000000000e+00 
2.590503317567e+01 1.000000000000e+00 
2.603131543460e+01 1.000000000000e+00 
2.603131543460e+01 1.000000000000e+00 
2.615633487010e+01 1.000000000000e+00 
2.615633487010e+01 1.000000000000e+00 
2.628010411157e+01 1.000000000000e+00 
2.628010411157e+01 1.000000000000e+00 
2.640263566165e+01 1.000000000000e+00 
2.640263566165e+01 1.000000000000e+00 
2.652394189646e+01 1.000000000000e+00 
2.652394189646e+01 1.000000000000e+00 
2.664403506819e+01 1.000000000000e+00 
2.664403506819e+01 1.000000000000e+00 
2.676292730749e+01 1.000000000000e+00 
2.676292730749e+01 1.000000000000e+00 
2.688063062371e+01 1.000000000000e+00 
2.688063062371e+01 1.000000000000e+00 
2.699715690733e+01 1.000000000000e+00 
2.699715690733e+01 1.000000000000e+00 
2.711251792783e+01 1.000000000000e+00 
2.711251792783e+01 1.000000000000e+00 
2.722672533837e+01 1.000000000000e+00 
2.722672533837e+01 1.000000000000e+00 
2.733979067584e+01 1.000000000000e+00 
2.733979067584e+01 1.000000000000e+00 
2.745172536099e+01 1.000000000000e+00 
2.745172536099e+01 1.000000000000e+00 
2.756254069846e+01 1.000000000000e+00 
2.756254069846e+01 1.000000000000e+00 
2.767224788139e+01 1.000000000000e+00 
2.767224788139e+01 1.000000000000e+00 
2.778085799355e+01 1.000000000000e+00 
2.778085799355e+01 1.000000000000e+00 
2.788838200492e+01 1.000000000000e+00 
2.788838200492e+01 1.000000000000e+00 
2.799483077616e+01 1.000000000000e+00 
2.799483077616e+01 1.000000000000e+00 
2.810021506075e+01 1.000000000000e+00 
2.810021506075e+01 1.000000000000e+00 
2.820454550273e+01 1.000000000000e+00 
2.820454550273e+01 1.000000000000e+00 
2.830783263881e+01 1.000000000000e+00 
2.830783263881e+01 1.000000000000e+00 
2.841008690281e+01 1.000000000000e+00 
2.841008690281e+01 1.000000000000e+00 
2.851131862540e+01 1.000000000000e+00 
2.851131862540e+01 1.000000000000e+00 
2.861153803179e+01 1.000000000000e+00 
2.861153803179e+01 1.000000000000e+00 
2.871075524376e+01 1.000000000000e+00 
2.871075524376e+01 1.000000000000e+00 
2.880898028173e+01 1.000000000000e+00 
2.880898028173e+01 1.000000000000e+00 
2.890622306906e+01 1.000000000000e+00 
2.890622306906e+01 1.000000000000e+00 
2.900249342943e+01 1.000000000000e+00 
2.900249342943e+01 1.000000000000e+00 
2.909780108672e+01 1.000000000000e+00 
2.909780108672e+01 1.000000000000e+00 
2.919215566688e+01 1.000000000000e+00 
2.919215566688e+01 1.000000000000e+00 
2.928556669997e+01 1.000000000000e+00 
2.928556669997e+01 1.000000000000e+00 
2.937804362425e+01 1.000000000000e+00 
2.937804362425e+01 1.000000000000e+00 
2.946959577909e+01 1.000000000000e+00 
2.946959577909e+01 1.000000000000e+00 
2.956023241146e+01 1.000000000000e+00 
2.956023241146e+01 1.000000000000e+00 
2.964996267766e+01 1.000000000000e+00 
2.964996267766e+01 1.000000000000e+00 
2.973879564079e+01 1.000000000000e+00 
2.973879564079e+01 1.000000000000e+00 
2.982674027474e+01 1.000000000000e+00 
2.982674027474e+01 1.000000000000e+00 
2.991380546382e+01 1.000000000000e+00 
2.991380546382e+01 1.000000000000e+00 
3.000000000000e+01 1.000000000000e+00 
3.000000000000e+01 1.000000000000e+00 
 TITLE = "Profiles along polylines"
 VARIABLES = "DIST" "SATURATION1" 
 ZONE T="TIME=1.797693134862e+308"
0.000000000000e+00 1.000000000000e+00 
0.000000000000e+00 1.000000000000e+00 
3.853325904026e-01 1.000000000000e+00 
3.853325904026e-01 1.000000000000e+00 
7.668118569391e-01 1.000000000000e+00 
7.668118569391e-01 1.000000000000e+00 
1.144476331261e+00 1.000000000000e+00 
1.144476331261e+00 1.000000000000e+00 
1.518364160756e+00 1.000000000000e+00 
1.518364160756e+00 1.000000000000e+00 
1.888513111735e+00 1.000000000000e+00 
1.888513111735e+00 1.000000000000e+00 
2.254960572587e+00 1.000000000000e+00 
2.254960572587e+00 1.000000000000e+00 
2.617743559071e+00 1.000000000000e+00 
2.617743559071e+00 1.000000000000e+00 
2.976898715045e+00 1.000000000000e+00 
2.976898715045e+00 1.000000000000e+00 
3.332462317634e+00 1.000000000000e+00 
3.332462317634e+00 1.000000000000e+00 
3.684470284690e+00 1.000000000000e+00 
3.684470284690e+00 1.000000000000e+00 
4.032958172690e+00 1.000000000000e+00 
4.032958172690e+00 1.000000000000e+00 
4.377961182086e+00 1.000000000000e+00 
4.377961182086e+00 1.000000000000e+00 
4.719514161942e+00 1.000000000000e+00 
4.719514161942e+00 1.000000000000e+00 
5.057651612557e+00 1.000000000000e+00 
5.057651612557e+00 1.000000000000e+00 
5.392407687905e+00 1.000000000000e+00 
5.392407687905e+00 1.000000000000e+00 
5.723816202601e+00 1.000000000000e+00 
5.723816202601e+00 1.000000000000e+00 
6.051910631882e+00 1.000000000000e+00 
6.051910631882e+00 1.000000000000e+00 
6.376724116257e+00 1.000000000000e+00 
6.376724116257e+00 1.000000000000e+00 
6.698289465825e+00 1.000000000000e+00 
6.698289465825e+00 1.000000000000e+00 
7.016639162519e+00 1.000000000000e+00 
7.016639162519e+00 1.000000000000e+00 
7.331805362068e+00 1.000000000000e+00 
7.331805362068e+00 1.000000000000e+00 
7.643819898382e+00 1.000000000000e+00 
7.643819898382e+00 1.000000000000e+00 
7.952714289854e+00 1.000000000000e+00 
7.952714289854e+00 1.000000000000e+00 
8.258519736812e+00 1.000000000000e+00 
8.258519736812e+00 1.000000000000e+00 
8.561267130059e+00 1.000000000000e+00 
8.561267130059e+00 1.000000000000e+00 
8.860987050331e+00 1.000000000000e+00 
8.860987050331e+00 1.000000000000e+00 
9.157709770050e+00 1.000000000000e+00 
9.157709770050e+00 1.000000000000e+00 
9.451465261671e+00 1.000000000000e+00 
9.451465261671e+00 1.000000000000e+00 
9.742283199200e+00 1.000000000000e+00 
9.742283199200e+00 1.000000000000e+00 
1.003019295747e+01 1.000000000000e+00 
1.003019295747e+01 1.000000000000e+00 
1.031522361810e+01 1.000000000000e+00 
1.031522361810e+01 1.000000000000e+00 
1.059740397310e+01 1.000000000000e+00 
1.059740397310e+01 1.000000000000e+00 
1.087676252393e+01 1.000000000000e+00 
1.087676252393e+01 1.000000000000e+00 
1.115332748959e+01 1.000000000000e+00 
1.115332748959e+01 1.000000000000e+00 
1.142712680544e+01 1.000000000000e+00 
1.142712680544e+01 1.000000000000e+00 
1.169818812676e+01 1.000000000000e+00 
1.169818812676e+01 1.000000000000e+00 
1.196653883645e+01 1.000000000000e+00 
1.196653883645e+01 1.000000000000e+00 
1.223220603937e+01 1.000000000000e+00 
1.223220603937e+01 1.000000000000e+00 
1.249521657012e+01 1.000000000000e+00 
1.249521657012e+01 1.000000000000e+00 
1.275559699610e+01 1.000000000000e+00 
1.275559699610e+01 1.000000000000e+00 
1.301337361853e+01 1.000000000000e+00 
1.301337361853e+01 1.000000000000e+00 
1.326857247535e+01 1.000000000000e+00 
1.326857247535e+01 1.000000000000e+00 
1.352121934215e+01 1.000000000000e+00 
1.352121934215e+01 1.000000000000e+00 
1.377133973956e+01 1.000000000000e+00 
1.377133973956e+01 1.000000000000e+00 
1.401895893383e+01 1.000000000000e+00 
1.401895893383e+01 1.000000000000e+00 
1.426410193533e+01 1.000000000000e+00 
1.426410193533e+01 1.000000000000e+00 
1.450679350577e+01 1.000000000000e+00 
1.450679350577e+01 1.000000000000e+00 
1.474705816096e+01 1.000000000000e+00 
1.474705816096e+01 1.000000000000e+00 
1.498492016905e+01 1.000000000000e+00 
1.498492016905e+01 1.000000000000e+00 
1.522040355766e+01 1.000000000000e+00 
1.522040355766e+01 1.000000000000e+00 
1.545353211423e+01 1.000000000000e+00 
1.545353211423e+01 1.000000000000e+00 
1.568432938408e+01 1.000000000000e+00 
1.568432938408e+01 1.000000000000e+00 
1.591281867978e+01 1.000000000000e+00 
1.591281867978e+01 1.000000000000e+00 
1.613902308343e+01 1.000000000000e+00 
1.613902308343e+01 1.000000000000e+00 
1.636296544468e+01 1.000000000000e+00 
1.636296544468e+01 1.000000000000e+00 
1.658466838309e+01 1.000000000000e+00 
1.658466838309e+01 1.000000000000e+00 
1.680415429045e+01 1.000000000000e+00 
1.680415429045e+01 1.000000000000e+00 
1.702144533761e+01 1.000000000000e+00 
1.702144533761e+01 1.000000000000e+00 
1.723656347436e+01 1.000000000000e+00 
1.723656347436e+01 1.000000000000e+00 
1.744953042940e+01 1.000000000000e+00 
1.744953042940e+01 1.000000000000e+00 
1.766036771480e+01 1.000000000000e+00 
1.766036771480e+01 1.000000000000e+00 
1.786909662801e+01 9.707599620666e-01 
1.786909662801e+01 9.767113421417e-01 
1.807573825396e+01 9.256843593738e-01 
1.807573825396e+01 9.317021370387e-01 
1.828031346254e+01 8.829017524975e-01 
1.828031346254e+01 8.884650359534e-01 
1.848284291744e+01 8.446526124508e-01 
1.848284291744e+01 8.496231455001e-01 
1.868334707792e+01 8.110471264615e-01 
1.868334707792e+01 8.154512555818e-01 
1.888184619627e+01 7.815853696557e-01 
1.888184619627e+01 7.854923659867e-01 
1.907836032415e+01 7.556619258261e-01 
1.907836032415e+01 7.591448546440e-01 
1.927290931213e+01 7.327187850006e-01 
1.927290931213e+01 7.358428579061e-01 
1.946551281146e+01 7.122820138897e-01 
1.946551281146e+01 7.151022285714e-01 
1.965619027579e+01 6.939608164337e-01 
1.965619027579e+01 6.965226018343e-01 
1.984496096516e+01 6.774359832758e-01 
1.984496096516e+01 6.797766417948e-01 
2.003184394756e+01 6.624469071436e-01 
2.003184394756e+01 6.645970964971e-01 
2.021685810057e+01 6.487800232246e-01 
2.021685810057e+01 6.507650470013e-01 
2.040002211069e+01 6.362593030880e-01 
2.040002211069e+01 6.381001675786e-01 
2.058135447938e+01 6.247386858574e-01 
2.058135447938e+01 6.264529434268e-01 
2.076087352447e+01 6.140961294805e-01 
2.076087352447e+01 6.156985448527e-01 
2.093859737947e+01 6.042289512665e-01 
2.093859737947e+01 6.057320267210e-01 
2.111454399713e+01 5.950501727131e-01 
2.111454399713e+01 5.964645628516e-01 
2.128873114865e+01 5.864856409143e-01 
2.128873114865e+01 5.878204815773e-01 
2.146117642951e+01 5.784717486405e-01 
2.146117642951e+01 5.797349191424e-01 
2.163189725849e+01 5.709536179528e-01 
2.163189725849e+01 5.721519514094e-01 
2.180091087897e+01 5.638836433271e-01 
2.180091087897e+01 5.650230964030e-01 
2.196823436244e+01 5.572203154425e-01 
2.196823436244e+01 5.583061062119e-01 
2.213388460967e+01 5.509272655447e-01 
2.213388460967e+01 5.519639861515e-01 
2.229787835416e+01 5.449724839399e-01 
2.229787835416e+01 5.459641932226e-01 
2.246023216093e+01 5.393276771959e-01 
2.246023216093e+01 5.402779772868e-01 
2.262096242998e+01 5.339677360284e-01 
2.262096242998e+01 5.348798360567e-01 
2.278008539728e+01 5.288702925353e-01 
2.278008539728e+01 5.297470618915e-01 
2.293761713360e+01 5.240153497877e-01 
2.293761713360e+01 5.248593628903e-01 
2.309357355226e+01 5.193849700414e-01 
2.309357355226e+01 5.201985441456e-01 
2.324797040780e+01 5.149630114946e-01 
2.324797040780e+01 5.157482387764e-01 
2.340082329468e+01 5.107349047607e-01 
2.340082329468e+01 5.114936796651e-01 
2.355214765275e+01 5.066874620482e-01 
2.355214765275e+01 5.074215046992e-01 
2.370195876802e+01 5.028087138455e-01 
2.370195876802e+01 5.035195901679e-01 
2.385027177131e+01 4.990877685306e-01 
2.385027177131e+01 4.997769076125e-01 
2.399710164360e+01 4.955146910114e-01 
2.399710164360e+01 4.961834001412e-01 
2.414246321895e+01 4.920803976341e-01 
2.414246321895e+01 4.927298753694e-01 
2.428637117854e+01 4.887765650097e-01 
2.428637117854e+01 4.894079125760e-01 
2.442884005824e+01 4.855955501696e-01 
2.442884005824e+01 4.862097814319e-01 
2.456988424912e+01 4.825303208400e-01 
2.456988424912e+01 4.831283710554e-01 
2.470951799827e+01 4.795743942262e-01 
2.470951799827e+01 4.801571277472e-01 
2.484775540934e+01 4.767217831173e-01 
2.484775540934e+01 4.772900001933e-01 
2.498461044543e+01 4.739669482518e-01 
2.498461044543e+01 4.745213910484e-01 
2.512009693189e+01 4.713047561513e-01 
2.512009693189e+01 4.718461140927e-01 
2.525422855236e+01 4.687304418175e-01 
2.525422855236e+01 4.692593563402e-01 
2.538701885608e+01 4.662395753314e-01 
2.538701885608e+01 4.667566441230e-01 
2.551848125833e+01 4.638280321869e-01 
2.551848125833e+01 4.643338129759e-01 
2.564862903640e+01 4.614919668485e-01 
2.564862903640e+01 4.619869807996e-01 
2.577747533681e+01 4.592277888615e-01 
2.577747533681e+01 4.597125236239e-01 
2.590503317567e+01 4.570321415231e-01 
2.590503317567e+01 4.575070539733e-01 
2.603131543460e+01 4.549018827642e-01 
2.603131543460e+01 4.553674014787e-01 
2.615633487010e+01 4.528340676938e-01 
2.615633487010e+01 4.532905951823e-01 
2.628010411157e+01 4.508259330182e-01 
2.628010411157e+01 4.512738477447e-01 
2.640263566165e+01 4.488748829045e-01 
2.640263566165e+01 4.493145411191e-01 
2.652394189646e+01 4.469784761676e-01 
2.652394189646e+01 4.474102135709e-01 
2.664403506819e+01 4.451344146012e-01 
2.664403506819e+01 4.455585478572e-01 
2.676292730749e+01 4.433405323661e-01 
2.676292730749e+01 4.437573604814e-01 
2.688063062371e+01 4.415947863565e-01 
2.688063062371e+01 4.420045919384e-01 
2.699715690733e+01 4.398952473789e-01 
2.699715690733e+01 4.402982977853e-01 
2.711251792783e+01 4.382400921556e-01 
2.711251792783e+01 4.386366405476e-01 
2.722672533837e+01 4.366275959121e-01 
2.722672533837e+01 4.370178822187e-01 
2.733979067584e+01 4.350561256495e-01 
2.733979067584e+01 4.354403774527e-01 
2.745172536099e+01 4.335241339689e-01 
2.745172536099e+01 4.339025673177e-01 
2.756254069846e+01 4.320301533993e-01 
2.756254069846e+01 4.324029735584e-01 
2.767224788139e+01 4.305727911181e-01 
2.767224788139e+01 4.309401932579e-01 
2.778085799355e+01 4.291507241209e-01 
2.778085799355e+01 4.295128939536e-01 
2.788838200492e+01 4.277626948508e-01 
2.788838200492e+01 4.281198092185e-01 
2.799483077616e+01 4.264075070500e-01 
2.799483077616e+01 4.267597344681e-01 
2.810021506075e+01 4.250840219535e-01 
2.810021506075e+01 4.254315231142e-01 
2.820454550273e+01 4.237911548231e-01 
2.820454550273e+01 4.241340830611e-01 
2.830783263881e+01 4.225278716800e-01 
2.830783263881e+01 4.228663734057e-01 
2.841008690281e+01 4.212931862497e-01 
2.841008690281e+01 4.216274013504e-01 
2.851131862540e+01 4.200861571797e-01 
2.851131862540e+01 4.204162193932e-01 
2.861153803179e+01 4.189058854790e-01 
2.861153803179e+01 4.192319227412e-01 
2.871075524376e+01 4.177515120857e-01 
2.871075524376e+01 4.180736468538e-01 
2.880898028173e+01 4.166222156017e-01 
2.880898028173e+01 4.169405651563e-01 
2.890622306906e+01 4.155172101571e-01 
2.890622306906e+01 4.158318868836e-01 
2.900249342943e+01 4.144357434950e-01 
2.900249342943e+01 4.147468551462e-01 
2.909780108672e+01 4.133770951563e-01 
2.909780108672e+01 4.136847450985e-01 
2.919215566688e+01 4.123405747618e-01 
2.919215566688e+01 4.126448622043e-01 
2.928556669997e+01 4.113255204034e-01 
2.928556669997e+01 4.116265406141e-01 
2.937804362425e+01 4.103312971178e-01 
2.937804362425e+01 4.106291416245e-01 
2.946959577909e+01 4.093572955734e-01 
2.946959577909e+01 4.096520523532e-01 
2.956023241146e+01 4.084029306992e-01 
2.956023241146e+01 4.086946843558e-01 
2.964996267766e+01 4.074676404460e-01 
2.964996267766e+01 4.077564723763e-01 
2.973879564079e+01 4.065508846691e-01 
2.973879564079e+01 4.068368732198e-01 
2.982674027474e+01 4.056521440103e-01 
2.982674027474e+01 4.059353646256e-01 
2.991380546382e+01 4.047709188931e-01 
2.991380546382e+01 4.050514442529e-01 
3.000000000000e+01 4.039067224699e-01 
3.000000000000e+01 4.041846225840e-01 
