 TITLE = "Profiles along polylines"
 VARIABLES = "DIST" "SATURATION1" 
 ZONE T="TIME=0.000000000000e+00"
0.000000000000e+00 1.000000000000e+00 
0.000000000000e+00 1.000000000000e+00 
0.000000000000e+00 1.000000000000e+00 
3.853325904026e-01 1.000000000000e+00 
3.853325904026e-01 1.000000000000e+00 
3.853325904026e-01 1.000000000000e+00 
7.668118569391e-01 1.000000000000e+00 
7.668118569391e-01 1.000000000000e+00 
7.668118569391e-01 1.000000000000e+00 
1.144476331261e+00 1.000000000000e+00 
1.144476331261e+00 1.000000000000e+00 
1.144476331261e+00 1.000000000000e+00 
1.518364160756e+00 1.000000000000e+00 
1.518364160756e+00 1.000000000000e+00 
1.518364160756e+00 1.000000000000e+00 
1.888513111735e+00 1.000000000000e+00 
1.888513111735e+00 1.000000000000e+00 
1.888513111735e+00 1.000000000000e+00 
2.254960572587e+00 1.000000000000e+00 
2.254960572587e+00 1.000000000000e+00 
2.254960572587e+00 1.000000000000e+00 
2.617743559071e+00 1.000000000000e+00 
2.617743559071e+00 1.000000000000e+00 
2.617743559071e+00 1.000000000000e+00 
2.976898715045e+00 1.000000000000e+00 
2.976898715045e+00 1.000000000000e+00 
2.976898715045e+00 1.000000000000e+00 
3.332462317634e+00 1.000000000000e+00 
3.332462317634e+00 1.000000000000e+00 
3.332462317634e+00 1.000000000000e+00 
3.684470284690e+00 1.000000000000e+00 
3.684470284690e+00 1.000000000000e+00 
3.684470284690e+00 1.000000000000e+00 
4.032958172690e+00 1.000000000000e+00 
4.032958172690e+00 1.000000000000e+00 
4.032958172690e+00 1.000000000000e+00 
4.377961182086e+00 1.000000000000e+00 
4.377961182086e+00 1.000000000000e+00 
4.377961182086e+00 1.000000000000e+00 
4.719514161942e+00 1.000000000000e+00 
4.719514161942e+00 1.000000000000e+00 
4.719514161942e+00 1.000000000000e+00 
5.057651612557e+00 1.000000000000e+00 
5.057651612557e+00 1.000000000000e+00 
5.057651612557e+00 1.000000000000e+00 
5.392407687905e+00 1.000000000000e+00 
5.392407687905e+00 1.000000000000e+00 
5.392407687905e+00 1.000000000000e+00 
5.723816202601e+00 1.000000000000e+00 
5.723816202601e+00 1.000000000000e+00 
5.723816202601e+00 1.000000000000e+00 
6.051910631882e+00 1.000000000000e+00 
6.051910631882e+00 1.000000000000e+00 
6.051910631882e+00 1.000000000000e+00 
6.376724116257e+00 1.000000000000e+00 
6.376724116257e+00 1.000000000000e+00 
6.376724116257e+00 1.000000000000e+00 
6.698289465825e+00 1.000000000000e+00 
6.698289465825e+00 1.000000000000e+00 
6.698289465825e+00 1.000000000000e+00 
7.016639162519e+00 1.000000000000e+00 
7.016639162519e+00 1.000000000000e+00 
7.016639162519e+00 1.000000000000e+00 
7.331805362068e+00 1.000000000000e+00 
7.331805362068e+00 1.000000000000e+00 
7.331805362068e+00 1.000000000000e+00 
7.643819898382e+00 1.000000000000e+00 
7.643819898382e+00 1.000000000000e+00 
7.643819898382e+00 1.000000000000e+00 
7.952714289854e+00 1.000000000000e+00 
7.952714289854e+00 1.000000000000e+00 
7.952714289854e+00 1.000000000000e+00 
8.258519736812e+00 1.000000000000e+00 
8.258519736812e+00 1.000000000000e+00 
8.258519736812e+00 1.000000000000e+00 
8.561267130059e+00 1.000000000000e+00 
8.561267130059e+00 1.000000000000e+00 
8.561267130059e+00 1.000000000000e+00 
8.860987050331e+00 1.000000000000e+00 
8.860987050331e+00 1.000000000000e+00 
8.860987050331e+00 1.000000000000e+00 
9.157709770050e+00 1.000000000000e+00 
9.157709770050e+00 1.000000000000e+00 
9.157709770050e+00 1.000000000000e+00 
9.451465261671e+00 1.000000000000e+00 
9.451465261671e+00 1.000000000000e+00 
9.451465261671e+00 1.000000000000e+00 
9.742283199200e+00 1.000000000000e+00 
9.742283199200e+00 1.000000000000e+00 
9.742283199200e+00 1.000000000000e+00 
1.003019295747e+01 1.000000000000e+00 
1.003019295747e+01 1.000000000000e+00 
1.003019295747e+01 1.000000000000e+00 
1.031522361810e+01 1.000000000000e+00 
1.031522361810e+01 1.000000000000e+00 
1.031522361810e+01 1.000000000000e+00 
1.059740397310e+01 1.000000000000e+00 
1.059740397310e+01 1.000000000000e+00 
1.059740397310e+01 1.000000000000e+00 
1.087676252393e+01 1.000000000000e+00 
1.087676252393e+01 1.000000000000e+00 
1.087676252393e+01 1.000000000000e+00 
1.115332748959e+01 1.000000000000e+00 
1.115332748959e+01 1.000000000000e+00 
1.115332748959e+01 1.000000000000e+00 
1.142712680544e+01 1.000000000000e+00 
1.142712680544e+01 1.000000000000e+00 
1.142712680544e+01 1.000000000000e+00 
1.169818812676e+01 1.000000000000e+00 
1.169818812676e+01 1.000000000000e+00 
1.169818812676e+01 1.000000000000e+00 
1.196653883645e+01 1.000000000000e+00 
1.196653883645e+01 1.000000000000e+00 
1.196653883645e+01 1.000000000000e+00 
1.223220603937e+01 1.000000000000e+00 
1.223220603937e+01 1.000000000000e+00 
1.223220603937e+01 1.000000000000e+00 
1.249521657012e+01 1.000000000000e+00 
1.249521657012e+01 1.000000000000e+00 
1.249521657012e+01 1.000000000000e+00 
1.275559699610e+01 1.000000000000e+00 
1.275559699610e+01 1.000000000000e+00 
1.275559699610e+01 1.000000000000e+00 
1.301337361853e+01 1.000000000000e+00 
1.301337361853e+01 1.000000000000e+00 
1.301337361853e+01 1.000000000000e+00 
1.326857247535e+01 1.000000000000e+00 
1.326857247535e+01 1.000000000000e+00 
1.326857247535e+01 1.000000000000e+00 
1.352121934215e+01 1.000000000000e+00 
1.352121934215e+01 1.000000000000e+00 
1.352121934215e+01 1.000000000000e+00 
1.377133973956e+01 1.000000000000e+00 
1.377133973956e+01 1.000000000000e+00 
1.377133973956e+01 1.000000000000e+00 
1.401895893383e+01 1.000000000000e+00 
1.401895893383e+01 1.000000000000e+00 
1.401895893383e+01 1.000000000000e+00 
1.426410193533e+01 1.000000000000e+00 
1.426410193533e+01 1.000000000000e+00 
1.426410193533e+01 1.000000000000e+00 
1.450679350577e+01 1.000000000000e+00 
1.450679350577e+01 1.000000000000e+00 
1.450679350577e+01 1.000000000000e+00 
1.474705816096e+01 1.000000000000e+00 
1.474705816096e+01 1.000000000000e+00 
1.474705816096e+01 1.000000000000e+00 
1.498492016905e+01 1.000000000000e+00 
1.498492016905e+01 1.000000000000e+00 
1.498492016905e+01 1.000000000000e+00 
1.522040355766e+01 1.000000000000e+00 
1.522040355766e+01 1.000000000000e+00 
1.522040355766e+01 1.000000000000e+00 
1.545353211423e+01 1.000000000000e+00 
1.545353211423e+01 1.000000000000e+00 
1.545353211423e+01 1.000000000000e+00 
1.568432938408e+01 1.000000000000e+00 
1.568432938408e+01 1.000000000000e+00 
1.568432938408e+01 1.000000000000e+00 
1.591281867978e+01 1.000000000000e+00 
1.591281867978e+01 1.000000000000e+00 
1.591281867978e+01 1.000000000000e+00 
1.613902308343e+01 1.000000000000e+00 
1.613902308343e+01 1.000000000000e+00 
1.613902308343e+01 1.000000000000e+00 
1.636296544468e+01 1.000000000000e+00 
1.636296544468e+01 1.000000000000e+00 
1.636296544468e+01 1.000000000000e+00 
1.658466838309e+01 1.000000000000e+00 
1.658466838309e+01 1.000000000000e+00 
1.658466838309e+01 1.000000000000e+00 
1.680415429045e+01 1.000000000000e+00 
1.680415429045e+01 1.000000000000e+00 
1.680415429045e+01 1.000000000000e+00 
1.702144533761e+01 1.000000000000e+00 
1.702144533761e+01 1.000000000000e+00 
1.702144533761e+01 1.000000000000e+00 
1.723656347436e+01 1.000000000000e+00 
1.723656347436e+01 1.000000000000e+00 
1.723656347436e+01 1.000000000000e+00 
1.744953042940e+01 1.000000000000e+00 
1.744953042940e+01 1.000000000000e+00 
1.744953042940e+01 1.000000000000e+00 
1.766036771480e+01 1.000000000000e+00 
1.766036771480e+01 1.000000000000e+00 
1.766036771480e+01 1.000000000000e+00 
1.786909662801e+01 1.000000000000e+00 
1.786909662801e+01 1.000000000000e+00 
1.786909662801e+01 1.000000000000e+00 
1.807573825396e+01 1.000000000000e+00 
1.807573825396e+01 1.000000000000e+00 
1.807573825396e+01 1.000000000000e+00 
1.828031346254e+01 1.000000000000e+00 
1.828031346254e+01 1.000000000000e+00 
1.828031346254e+01 1.000000000000e+00 
1.848284291744e+01 1.000000000000e+00 
1.848284291744e+01 1.000000000000e+00 
1.848284291744e+01 1.000000000000e+00 
1.868334707792e+01 1.000000000000e+00 
1.868334707792e+01 1.000000000000e+00 
1.868334707792e+01 1.000000000000e+00 
1.888184619627e+01 1.000000000000e+00 
1.888184619627e+01 1.000000000000e+00 
1.888184619627e+01 1.000000000000e+00 
1.907836032415e+01 1.000000000000e+00 
1.907836032415e+01 1.000000000000e+00 
1.907836032415e+01 1.000000000000e+00 
1.927290931213e+01 1.000000000000e+00 
1.927290931213e+01 1.000000000000e+00 
1.927290931213e+01 1.000000000000e+00 
1.946551281146e+01 1.000000000000e+00 
1.946551281146e+01 1.000000000000e+00 
1.946551281146e+01 1.000000000000e+00 
1.965619027579e+01 1.000000000000e+00 
1.965619027579e+01 1.000000000000e+00 
1.965619027579e+01 1.000000000000e+00 
1.984496096516e+01 1.000000000000e+00 
1.984496096516e+01 1.000000000000e+00 
1.984496096516e+01 1.000000000000e+00 
2.003184394756e+01 1.000000000000e+00 
2.003184394756e+01 1.000000000000e+00 
2.003184394756e+01 1.000000000000e+00 
2.021685810057e+01 1.000000000000e+00 
2.021685810057e+01 1.000000000000e+00 
2.021685810057e+01 1.000000000000e+00 
2.040002211069e+01 1.000000000000e+00 
2.040002211069e+01 1.000000000000e+00 
2.040002211069e+01 1.000000000000e+00 
2.058135447938e+01 1.000000000000e+00 
2.058135447938e+01 1.000000000000e+00 
2.058135447938e+01 1.000000000000e+00 
2.076087352447e+01 1.000000000000e+00 
2.076087352447e+01 1.000000000000e+00 
2.076087352447e+01 1.000000000000e+00 
2.093859737947e+01 1.000000000000e+00 
2.093859737947e+01 1.000000000000e+00 
2.093859737947e+01 1.000000000000e+00 
2.111454399713e+01 1.000000000000e+00 
2.111454399713e+01 1.000000000000e+00 
2.111454399713e+01 1.000000000000e+00 
2.128873114865e+01 1.000000000000e+00 
2.128873114865e+01 1.000000000000e+00 
2.128873114865e+01 1.000000000000e+00 
2.146117642951e+01 1.000000000000e+00 
2.146117642951e+01 1.000000000000e+00 
2.146117642951e+01 1.000000000000e+00 
2.163189725849e+01 1.000000000000e+00 
2.163189725849e+01 1.000000000000e+00 
2.163189725849e+01 1.000000000000e+00 
2.180091087897e+01 1.000000000000e+00 
2.180091087897e+01 1.000000000000e+00 
2.180091087897e+01 1.000000000000e+00 
2.196823436244e+01 1.000000000000e+00 
2.196823436244e+01 1.000000000000e+00 
2.196823436244e+01 1.000000000000e+00 
2.213388460967e+01 1.000000000000e+00 
2.213388460967e+01 1.000000000000e+00 
2.213388460967e+01 1.000000000000e+00 
2.229787835416e+01 1.000000000000e+00 
2.229787835416e+01 1.000000000000e+00 
2.229787835416e+01 1.000000000000e+00 
2.246023216093e+01 1.000000000000e+00 
2.246023216093e+01 1.000000000000e+00 
2.246023216093e+01 1.000000000000e+00 
2.262096242998e+01 1.000000000000e+00 
2.262096242998e+01 1.000000000000e+00 
2.262096242998e+01 1.000000000000e+00 
2.278008539728e+01 1.000000000000e+00 
2.278008539728e+01 1.000000000000e+00 
2.278008539728e+01 1.000000000000e+00 
2.293761713360e+01 1.000000000000e+00 
2.293761713360e+01 1.000000000000e+00 
2.293761713360e+01 1.000000000000e+00 
2.309357355226e+01 1.000000000000e+00 
2.309357355226e+01 1.000000000000e+00 
2.309357355226e+01 1.000000000000e+00 
2.324797040780e+01 1.000000000000e+00 
2.324797040780e+01 1.000000000000e+00 
2.324797040780e+01 1.000000000000e+00 
2.340082329468e+01 1.000000000000e+00 
2.340082329468e+01 1.000000000000e+00 
2.340082329468e+01 1.000000000000e+00 
2.355214765275e+01 1.000000000000e+00 
2.355214765275e+01 1.000000000000e+00 
2.355214765275e+01 1.000000000000e+00 
2.370195876802e+01 1.000000000000e+00 
2.370195876802e+01 1.000000000000e+00 
2.370195876802e+01 1.000000000000e+00 
2.385027177131e+01 1.000000000000e+00 
2.385027177131e+01 1.000000000000e+00 
2.385027177131e+01 1.000000000000e+00 
2.399710164360e+01 1.000000000000e+00 
2.399710164360e+01 1.000000000000e+00 
2.399710164360e+01 1.000000000000e+00 
2.414246321895e+01 1.000000000000e+00 
2.414246321895e+01 1.000000000000e+00 
2.414246321895e+01 1.000000000000e+00 
2.428637117854e+01 1.000000000000e+00 
2.428637117854e+01 1.000000000000e+00 
2.428637117854e+01 1.000000000000e+00 
2.442884005824e+01 1.000000000000e+00 
2.442884005824e+01 1.000000000000e+00 
2.442884005824e+01 1.000000000000e+00 
2.456988424912e+01 1.000000000000e+00 
2.456988424912e+01 1.000000000000e+00 
2.456988424912e+01 1.000000000000e+00 
2.470951799827e+01 1.000000000000e+00 
2.470951799827e+01 1.000000000000e+00 
2.470951799827e+01 1.000000000000e+00 
2.484775540934e+01 1.000000000000e+00 
2.484775540934e+01 1.000000000000e+00 
2.484775540934e+01 1.000000000000e+00 
2.498461044543e+01 1.000000000000e+00 
2.498461044543e+01 1.000000000000e+00 
2.498461044543e+01 1.000000000000e+00 
2.512009693189e+01 1.000000000000e+00 
2.512009693189e+01 1.000000000000e+00 
2.512009693189e+01 1.000000000000e+00 
2.525422855236e+01 1.000000000000e+00 
2.525422855236e+01 1.000000000000e+00 
2.525422855236e+01 1.000000000000e+00 
2.538701885608e+01 1.000000000000e+00 
2.538701885608e+01 1.000000000000e+00 
2.538701885608e+01 1.000000000000e+00 
2.551848125833e+01 1.000000000000e+00 
2.551848125833e+01 1.000000000000e+00 
2.551848125833e+01 1.000000000000e+00 
2.564862903640e+01 1.000000000000e+00 
2.564862903640e+01 1.000000000000e+00 
2.564862903640e+01 1.000000000000e+00 
2.577747533681e+01 1.000000000000e+00 
2.577747533681e+01 1.000000000000e+00 
2.577747533681e+01 1.000000000000e+00 
2.590503317567e+01 1.000000000000e+00 
2.590503317567e+01 1.000000000000e+00 
2.590503317567e+01 1.000000000000e+00 
2.603131543460e+01 1.000000000000e+00 
2.603131543460e+01 1.000000000000e+00 
2.603131543460e+01 1.000000000000e+00 
2.615633487010e+01 1.000000000000e+00 
2.615633487010e+01 1.000000000000e+00 
2.615633487010e+01 1.000000000000e+00 
2.628010411157e+01 1.000000000000e+00 
2.628010411157e+01 1.000000000000e+00 
2.628010411157e+01 1.000000000000e+00 
2.640263566165e+01 1.000000000000e+00 
2.640263566165e+01 1.000000000000e+00 
2.640263566165e+01 1.000000000000e+00 
2.652394189646e+01 1.000000000000e+00 
2.652394189646e+01 1.000000000000e+00 
2.652394189646e+01 1.000000000000e+00 
2.664403506819e+01 1.000000000000e+00 
2.664403506819e+01 1.000000000000e+00 
2.664403506819e+01 1.000000000000e+00 
2.676292730749e+01 1.000000000000e+00 
2.676292730749e+01 1.000000000000e+00 
2.676292730749e+01 1.000000000000e+00 
2.688063062371e+01 1.000000000000e+00 
2.688063062371e+01 1.000000000000e+00 
2.688063062371e+01 1.000000000000e+00 
2.699715690733e+01 1.000000000000e+00 
2.699715690733e+01 1.000000000000e+00 
2.699715690733e+01 1.000000000000e+00 
2.711251792783e+01 1.000000000000e+00 
2.711251792783e+01 1.000000000000e+00 
2.711251792783e+01 1.000000000000e+00 
2.722672533837e+01 1.000000000000e+00 
2.722672533837e+01 1.000000000000e+00 
2.722672533837e+01 1.000000000000e+00 
2.733979067584e+01 1.000000000000e+00 
2.733979067584e+01 1.000000000000e+00 
2.733979067584e+01 1.000000000000e+00 
2.745172536099e+01 1.000000000000e+00 
2.745172536099e+01 1.000000000000e+00 
2.745172536099e+01 1.000000000000e+00 
2.756254069846e+01 1.000000000000e+00 
2.756254069846e+01 1.000000000000e+00 
2.756254069846e+01 1.000000000000e+00 
2.767224788139e+01 1.000000000000e+00 
2.767224788139e+01 1.000000000000e+00 
2.767224788139e+01 1.000000000000e+00 
2.778085799355e+01 1.000000000000e+00 
2.778085799355e+01 1.000000000000e+00 
2.778085799355e+01 1.000000000000e+00 
2.788838200492e+01 1.000000000000e+00 
2.788838200492e+01 1.000000000000e+00 
2.788838200492e+01 1.000000000000e+00 
2.799483077616e+01 1.000000000000e+00 
2.799483077616e+01 1.000000000000e+00 
2.799483077616e+01 1.000000000000e+00 
2.810021506075e+01 1.000000000000e+00 
2.810021506075e+01 1.000000000000e+00 
2.810021506075e+01 1.000000000000e+00 
2.820454550273e+01 1.000000000000e+00 
2.820454550273e+01 1.000000000000e+00 
2.820454550273e+01 1.000000000000e+00 
2.830783263881e+01 1.000000000000e+00 
2.830783263881e+01 1.000000000000e+00 
2.830783263881e+01 1.000000000000e+00 
2.841008690281e+01 1.000000000000e+00 
2.841008690281e+01 1.000000000000e+00 
2.841008690281e+01 1.000000000000e+00 
2.851131862540e+01 1.000000000000e+00 
2.851131862540e+01 1.000000000000e+00 
2.851131862540e+01 1.000000000000e+00 
2.861153803179e+01 1.000000000000e+00 
2.861153803179e+01 1.000000000000e+00 
2.861153803179e+01 1.000000000000e+00 
2.871075524376e+01 1.000000000000e+00 
2.871075524376e+01 1.000000000000e+00 
2.871075524376e+01 1.000000000000e+00 
2.880898028173e+01 1.000000000000e+00 
2.880898028173e+01 1.000000000000e+00 
2.880898028173e+01 1.000000000000e+00 
2.890622306906e+01 1.000000000000e+00 
2.890622306906e+01 1.000000000000e+00 
2.890622306906e+01 1.000000000000e+00 
2.900249342943e+01 1.000000000000e+00 
2.900249342943e+01 1.000000000000e+00 
2.900249342943e+01 1.000000000000e+00 
2.909780108672e+01 1.000000000000e+00 
2.909780108672e+01 1.000000000000e+00 
2.909780108672e+01 1.000000000000e+00 
2.919215566688e+01 1.000000000000e+00 
2.919215566688e+01 1.000000000000e+00 
2.919215566688e+01 1.000000000000e+00 
2.928556669997e+01 1.000000000000e+00 
2.928556669997e+01 1.000000000000e+00 
2.928556669997e+01 1.000000000000e+00 
2.937804362425e+01 1.000000000000e+00 
2.937804362425e+01 1.000000000000e+00 
2.937804362425e+01 1.000000000000e+00 
2.946959577909e+01 1.000000000000e+00 
2.946959577909e+01 1.000000000000e+00 
2.946959577909e+01 1.000000000000e+00 
2.956023241146e+01 1.000000000000e+00 
2.956023241146e+01 1.000000000000e+00 
2.956023241146e+01 1.000000000000e+00 
2.964996267766e+01 1.000000000000e+00 
2.964996267766e+01 1.000000000000e+00 
2.964996267766e+01 1.000000000000e+00 
2.973879564079e+01 1.000000000000e+00 
2.973879564079e+01 1.000000000000e+00 
2.973879564079e+01 1.000000000000e+00 
2.982674027474e+01 1.000000000000e+00 
2.982674027474e+01 1.000000000000e+00 
2.982674027474e+01 1.000000000000e+00 
2.991380546382e+01 1.000000000000e+00 
2.991380546382e+01 1.000000000000e+00 
2.991380546382e+01 1.000000000000e+00 
3.000000000000e+01 1.000000000000e+00 
3.000000000000e+01 1.000000000000e+00 
3.000000000000e+01 1.000000000000e+00 
 TITLE = "Profiles along polylines"
 VARIABLES = "DIST" "SATURATION1" 
 ZONE T="TIME=1.797693134862e+308"
0.000000000000e+00 1.000000000000e+00 
0.000000000000e+00 1.000000000000e+00 
0.000000000000e+00 1.000000000000e+00 
3.853325904026e-01 1.000000000000e+00 
3.853325904026e-01 1.000000000000e+00 
3.853325904026e-01 1.000000000000e+00 
7.668118569391e-01 1.000000000000e+00 
7.668118569391e-01 1.000000000000e+00 
7.668118569391e-01 1.000000000000e+00 
1.144476331261e+00 1.000000000000e+00 
1.144476331261e+00 1.000000000000e+00 
1.144476331261e+00 1.000000000000e+00 
1.518364160756e+00 1.000000000000e+00 
1.518364160756e+00 1.000000000000e+00 
1.518364160756e+00 1.000000000000e+00 
1.888513111735e+00 1.000000000000e+00 
1.888513111735e+00 1.000000000000e+00 
1.888513111735e+00 1.000000000000e+00 
2.254960572587e+00 1.000000000000e+00 
2.254960572587e+00 1.000000000000e+00 
2.254960572587e+00 1.000000000000e+00 
2.617743559071e+00 1.000000000000e+00 
2.617743559071e+00 1.000000000000e+00 
2.617743559071e+00 1.000000000000e+00 
2.976898715045e+00 1.000000000000e+00 
2.976898715045e+00 1.000000000000e+00 
2.976898715045e+00 1.000000000000e+00 
3.332462317634e+00 1.000000000000e+00 
3.332462317634e+00 1.000000000000e+00 
3.332462317634e+00 1.000000000000e+00 
3.684470284690e+00 1.000000000000e+00 
3.684470284690e+00 1.000000000000e+00 
3.684470284690e+00 1.000000000000e+00 
4.032958172690e+00 1.000000000000e+00 
4.032958172690e+00 1.000000000000e+00 
4.032958172690e+00 1.000000000000e+00 
4.377961182086e+00 1.000000000000e+00 
4.377961182086e+00 1.000000000000e+00 
4.377961182086e+00 1.000000000000e+00 
4.719514161942e+00 1.000000000000e+00 
4.719514161942e+00 1.000000000000e+00 
4.719514161942e+00 1.000000000000e+00 
5.057651612557e+00 1.000000000000e+00 
5.057651612557e+00 1.000000000000e+00 
5.057651612557e+00 1.000000000000e+00 
5.392407687905e+00 1.000000000000e+00 
5.392407687905e+00 1.000000000000e+00 
5.392407687905e+00 1.000000000000e+00 
5.723816202601e+00 1.000000000000e+00 
5.723816202601e+00 1.000000000000e+00 
5.723816202601e+00 1.000000000000e+00 
6.051910631882e+00 1.000000000000e+00 
6.051910631882e+00 1.000000000000e+00 
6.051910631882e+00 1.000000000000e+00 
6.376724116257e+00 1.000000000000e+00 
6.376724116257e+00 1.000000000000e+00 
6.376724116257e+00 1.000000000000e+00 
6.698289465825e+00 1.000000000000e+00 
6.698289465825e+00 1.000000000000e+00 
6.698289465825e+00 1.000000000000e+00 
7.016639162519e+00 1.000000000000e+00 
7.016639162519e+00 1.000000000000e+00 
7.016639162519e+00 1.000000000000e+00 
7.331805362068e+00 1.000000000000e+00 
7.331805362068e+00 1.000000000000e+00 
7.331805362068e+00 1.000000000000e+00 
7.643819898382e+00 1.000000000000e+00 
7.643819898382e+00 1.000000000000e+00 
7.643819898382e+00 1.000000000000e+00 
7.952714289854e+00 1.000000000000e+00 
7.952714289854e+00 1.000000000000e+00 
7.952714289854e+00 1.000000000000e+00 
8.258519736812e+00 1.000000000000e+00 
8.258519736812e+00 1.000000000000e+00 
8.258519736812e+00 1.000000000000e+00 
8.561267130059e+00 1.000000000000e+00 
8.561267130059e+00 1.000000000000e+00 
8.561267130059e+00 1.000000000000e+00 
8.860987050331e+00 1.000000000000e+00 
8.860987050331e+00 1.000000000000e+00 
8.860987050331e+00 1.000000000000e+00 
9.157709770050e+00 1.000000000000e+00 
9.157709770050e+00 1.000000000000e+00 
9.157709770050e+00 1.000000000000e+00 
9.451465261671e+00 1.000000000000e+00 
9.451465261671e+00 1.000000000000e+00 
9.451465261671e+00 1.000000000000e+00 
9.742283199200e+00 1.000000000000e+00 
9.742283199200e+00 1.000000000000e+00 
9.742283199200e+00 1.000000000000e+00 
1.003019295747e+01 1.000000000000e+00 
1.003019295747e+01 1.000000000000e+00 
1.003019295747e+01 1.000000000000e+00 
1.031522361810e+01 1.000000000000e+00 
1.031522361810e+01 1.000000000000e+00 
1.031522361810e+01 1.000000000000e+00 
1.059740397310e+01 1.000000000000e+00 
1.059740397310e+01 1.000000000000e+00 
1.059740397310e+01 1.000000000000e+00 
1.087676252393e+01 1.000000000000e+00 
1.087676252393e+01 1.000000000000e+00 
1.087676252393e+01 1.000000000000e+00 
1.115332748959e+01 1.000000000000e+00 
1.115332748959e+01 1.000000000000e+00 
1.115332748959e+01 1.000000000000e+00 
1.142712680544e+01 1.000000000000e+00 
1.142712680544e+01 1.000000000000e+00 
1.142712680544e+01 1.000000000000e+00 
1.169818812676e+01 1.000000000000e+00 
1.169818812676e+01 1.000000000000e+00 
1.169818812676e+01 1.000000000000e+00 
1.196653883645e+01 1.000000000000e+00 
1.196653883645e+01 1.000000000000e+00 
1.196653883645e+01 1.000000000000e+00 
1.223220603937e+01 1.000000000000e+00 
1.223220603937e+01 1.000000000000e+00 
1.223220603937e+01 1.000000000000e+00 
1.249521657012e+01 1.000000000000e+00 
1.249521657012e+01 1.000000000000e+00 
1.249521657012e+01 1.000000000000e+00 
1.275559699610e+01 1.000000000000e+00 
1.275559699610e+01 1.000000000000e+00 
1.275559699610e+01 1.000000000000e+00 
1.301337361853e+01 1.000000000000e+00 
1.301337361853e+01 1.000000000000e+00 
1.301337361853e+01 1.000000000000e+00 
1.326857247535e+01 1.000000000000e+00 
1.326857247535e+01 1.000000000000e+00 
1.326857247535e+01 1.000000000000e+00 
1.352121934215e+01 1.000000000000e+00 
1.352121934215e+01 1.000000000000e+00 
1.352121934215e+01 1.000000000000e+00 
1.377133973956e+01 1.000000000000e+00 
1.377133973956e+01 1.000000000000e+00 
1.377133973956e+01 1.000000000000e+00 
1.401895893383e+01 1.000000000000e+00 
1.401895893383e+01 1.000000000000e+00 
1.401895893383e+01 1.000000000000e+00 
1.426410193533e+01 1.000000000000e+00 
1.426410193533e+01 1.000000000000e+00 
1.426410193533e+01 1.000000000000e+00 
1.450679350577e+01 1.000000000000e+00 
1.450679350577e+01 1.000000000000e+00 
1.450679350577e+01 1.000000000000e+00 
1.474705816096e+01 1.000000000000e+00 
1.474705816096e+01 1.000000000000e+00 
1.474705816096e+01 1.000000000000e+00 
1.498492016905e+01 1.000000000000e+00 
1.498492016905e+01 1.000000000000e+00 
1.498492016905e+01 1.000000000000e+00 
1.522040355766e+01 1.000000000000e+00 
1.522040355766e+01 1.000000000000e+00 
1.522040355766e+01 1.000000000000e+00 
1.545353211423e+01 1.000000000000e+00 
1.545353211423e+01 1.000000000000e+00 
1.545353211423e+01 1.000000000000e+00 
1.568432938408e+01 1.000000000000e+00 
1.568432938408e+01 1.000000000000e+00 
1.568432938408e+01 1.000000000000e+00 
1.591281867978e+01 1.000000000000e+00 
1.591281867978e+01 1.000000000000e+00 
1.591281867978e+01 1.000000000000e+00 
1.613902308343e+01 1.000000000000e+00 
1.613902308343e+01 1.000000000000e+00 
1.613902308343e+01 1.000000000000e+00 
1.636296544468e+01 1.000000000000e+00 
1.636296544468e+01 1.000000000000e+00 
1.636296544468e+01 1.000000000000e+00 
1.658466838309e+01 1.000000000000e+00 
1.658466838309e+01 1.000000000000e+00 
1.658466838309e+01 1.000000000000e+00 
1.680415429045e+01 1.000000000000e+00 
1.680415429045e+01 1.000000000000e+00 
1.680415429045e+01 1.000000000000e+00 
1.702144533761e+01 9.826198374297e-01 
1.702144533761e+01 9.766499020447e-01 
1.702144533761e+01 9.881726929009e-01 
1.723656347436e+01 9.359968034926e-01 
1.723656347436e+01 9.296761249086e-01 
1.723656347436e+01 9.422873161845e-01 
1.744953042940e+01 8.907289977206e-01 
1.744953042940e+01 8.848889251026e-01 
1.744953042940e+01 8.966053289342e-01 
1.766036771480e+01 8.501326681612e-01 
1.766036771480e+01 8.449444653962e-01 
1.766036771480e+01 8.553726776802e-01 
1.786909662801e+01 8.145838217770e-01 
1.786909662801e+01 8.100165223027e-01 
1.786909662801e+01 8.192025018184e-01 
1.807573825396e+01 7.835730285796e-01 
1.807573825396e+01 7.795458856229e-01 
1.807573825396e+01 7.876465726517e-01 
1.828031346254e+01 7.564256219199e-01 
1.828031346254e+01 7.528549484634e-01 
1.828031346254e+01 7.600369306081e-01 
1.848284291744e+01 7.325132180242e-01 
1.848284291744e+01 7.293254698124e-01 
1.848284291744e+01 7.357362414732e-01 
1.868334707792e+01 7.113038696738e-01 
1.868334707792e+01 7.084378419719e-01 
1.868334707792e+01 7.142005232618e-01 
1.888184619627e+01 6.923619279069e-01 
1.888184619627e+01 6.897676418742e-01 
1.888184619627e+01 6.949829057779e-01 
1.907836032415e+01 6.777207881358e-01 
1.907836032415e+01 6.753342251750e-01 
1.907836032415e+01 6.729710495334e-01 
1.927290931213e+01 6.621203239689e-01 
1.927290931213e+01 6.577693756005e-01 
1.927290931213e+01 6.599345445958e-01 
1.946551281146e+01 6.459299364497e-01 
1.946551281146e+01 6.439356605487e-01 
1.946551281146e+01 6.479424798011e-01 
1.965619027579e+01 6.331295932918e-01 
1.965619027579e+01 6.312838540422e-01 
1.965619027579e+01 6.349916122355e-01 
1.984496096516e+01 6.213760883985e-01 
1.984496096516e+01 6.196603178787e-01 
1.984496096516e+01 6.231064418265e-01 
2.003184394756e+01 6.105385576749e-01 
2.003184394756e+01 6.089372210501e-01 
2.003184394756e+01 6.121530198073e-01 
2.021685810057e+01 6.005074071121e-01 
2.021685810057e+01 5.990074135911e-01 
2.021685810057e+01 6.020192668137e-01 
2.040002211069e+01 5.911901950731e-01 
2.040002211069e+01 5.897804370651e-01 
2.040002211069e+01 5.926107248665e-01 
2.058135447938e+01 5.825084126437e-01 
2.058135447938e+01 5.811794033118e-01 
2.058135447938e+01 5.838472375919e-01 
2.076087352447e+01 5.743949511194e-01 
2.076087352447e+01 5.731385375300e-01 
2.076087352447e+01 5.756603407376e-01 
2.093859737947e+01 5.667920962954e-01 
2.093859737947e+01 5.656012308669e-01 
2.093859737947e+01 5.679911970919e-01 
2.111454399713e+01 5.596499285203e-01 
2.111454399713e+01 5.585184856709e-01 
2.111454399713e+01 5.607889505087e-01 
2.128873114865e+01 5.529250377331e-01 
2.128873114865e+01 5.518476657803e-01 
2.128873114865e+01 5.540094050488e-01 
2.146117642951e+01 5.465794839320e-01 
2.146117642951e+01 5.455514846684e-01 
2.146117642951e+01 5.476139572728e-01 
2.163189725849e+01 5.405799509928e-01 
2.163189725849e+01 5.395971811303e-01 
2.163189725849e+01 5.415687278021e-01 
2.180091087897e+01 5.348970531357e-01 
2.180091087897e+01 5.339558431448e-01 
2.180091087897e+01 5.358438500845e-01 
2.196823436244e+01 5.295047629845e-01 
2.196823436244e+01 5.286018498605e-01 
2.196823436244e+01 5.304128842848e-01 
2.213388460967e+01 5.243799372404e-01 
2.213388460967e+01 5.235124084891e-01 
2.213388460967e+01 5.252523315478e-01 
2.229787835416e+01 5.195019209710e-01 
2.229787835416e+01 5.186671676885e-01 
2.229787835416e+01 5.203412290390e-01 
2.246023216093e+01 5.148522158993e-01 
2.246023216093e+01 5.140478932654e-01 
2.246023216093e+01 5.156608106969e-01 
2.262096242998e+01 5.104142006872e-01 
2.262096242998e+01 5.096381945387e-01 
2.262096242998e+01 5.111942213372e-01 
2.278008539728e+01 5.061728940946e-01 
2.278008539728e+01 5.054232925086e-01 
2.278008539728e+01 5.069262747191e-01 
2.293761713360e+01 5.021147535139e-01 
2.293761713360e+01 5.013898225434e-01 
2.293761713360e+01 5.028432478615e-01 
2.309357355226e+01 4.982275025782e-01 
2.309357355226e+01 4.975256654463e-01 
2.309357355226e+01 4.989327051381e-01 
2.324797040780e+01 4.944999834458e-01 
2.324797040780e+01 4.938198026310e-01 
2.324797040780e+01 4.951833476239e-01 
2.340082329468e+01 4.909220295260e-01 
2.340082329468e+01 4.902621912787e-01 
2.340082329468e+01 4.915848833527e-01 
2.355214765275e+01 4.874843552560e-01 
2.355214765275e+01 4.868436561675e-01 
2.355214765275e+01 4.881279150103e-01 
2.370195876802e+01 4.841784605355e-01 
2.370195876802e+01 4.835557958452e-01 
2.370195876802e+01 4.848038426025e-01 
2.385027177131e+01 4.809965475381e-01 
2.385027177131e+01 4.803909009208e-01 
2.385027177131e+01 4.816047787663e-01 
2.399710164360e+01 4.779314478796e-01 
2.399710164360e+01 4.773418824966e-01 
2.399710164360e+01 4.785234746532e-01 
2.414246321895e+01 4.749765588253e-01 
2.414246321895e+01 4.744022094593e-01 
2.414246321895e+01 4.755532550382e-01 
2.428637117854e+01 4.721257873782e-01 
2.428637117854e+01 4.715658534990e-01 
2.428637117854e+01 4.726879614621e-01 
2.442884005824e+01 4.693735007158e-01 
2.442884005824e+01 4.688272403516e-01 
2.442884005824e+01 4.699219018520e-01 
2.456988424912e+01 4.667144825006e-01 
2.456988424912e+01 4.661812068049e-01 
2.456988424912e+01 4.672498061249e-01 
2.470951799827e+01 4.636229625676e-01 
2.470951799827e+01 4.641438941438e-01 
2.470951799827e+01 4.646667868385e-01 
2.484775540934e+01 4.616572403812e-01 