 TITLE = "Profiles along polylines"
 VARIABLES = "DIST" "SATURATION1" 
 ZONE T="TIME=0.000000000000e+00"
0.000000000000e+00 1.000000000000e+00 
0.000000000000e+00 1.000000000000e+00 
3.853325904026e-01 1.000000000000e+00 
3.853325904026e-01 1.000000000000e+00 
7.668118569391e-01 1.000000000000e+00 
7.668118569391e-01 1.000000000000e+00 
1.144476331261e+00 1.000000000000e+00 
1.144476331261e+00 1.000000000000e+00 
1.518364160756e+00 1.000000000000e+00 
1.518364160756e+00 1.000000000000e+00 
1.888513111735e+00 1.000000000000e+00 
1.888513111735e+00 1.000000000000e+00 
2.254960572587e+00 1.000000000000e+00 
2.254960572587e+00 1.000000000000e+00 
2.617743559071e+00 1.000000000000e+00 
2.617743559071e+00 1.000000000000e+00 
2.976898715045e+00 1.000000000000e+00 
2.976898715045e+00 1.000000000000e+00 
3.332462317634e+00 1.000000000000e+00 
3.332462317634e+00 1.000000000000e+00 
3.684470284690e+00 1.000000000000e+00 
3.684470284690e+00 1.000000000000e+00 
4.032958172690e+00 1.000000000000e+00 
4.032958172690e+00 1.000000000000e+00 
4.377961182086e+00 1.000000000000e+00 
4.377961182086e+00 1.000000000000e+00 
4.719514161942e+00 1.000000000000e+00 
4.719514161942e+00 1.000000000000e+00 
5.057651612557e+00 1.000000000000e+00 
5.057651612557e+00 1.000000000000e+00 
5.392407687905e+00 1.000000000000e+00 
5.392407687905e+00 1.000000000000e+00 
5.723816202601e+00 1.000000000000e+00 
5.723816202601e+00 1.000000000000e+00 
6.051910631882e+00 1.000000000000e+00 
6.051910631882e+00 1.000000000000e+00 
6.376724116257e+00 1.000000000000e+00 
6.376724116257e+00 1.000000000000e+00 
6.698289465825e+00 1.000000000000e+00 
6.698289465825e+00 1.000000000000e+00 
7.016639162519e+00 1.000000000000e+00 
7.016639162519e+00 1.000000000000e+00 
7.331805362068e+00 1.000000000000e+00 
7.331805362068e+00 1.000000000000e+00 
7.643819898382e+00 1.000000000000e+00 
7.643819898382e+00 1.000000000000e+00 
7.952714289854e+00 1.000000000000e+00 
7.952714289854e+00 1.000000000000e+00 
8.258519736812e+00 1.000000000000e+00 
8.258519736812e+00 1.000000000000e+00 
8.561267130059e+00 1.000000000000e+00 
8.561267130059e+00 1.000000000000e+00 
8.860987050331e+00 1.000000000000e+00 
8.860987050331e+00 1.000000000000e+00 
9.157709770050e+00 1.000000000000e+00 
9.157709770050e+00 1.000000000000e+00 
9.451465261671e+00 1.000000000000e+00 
9.451465261671e+00 1.000000000000e+00 
9.742283199200e+00 1.000000000000e+00 
9.742283199200e+00 1.000000000000e+00 
1.003019295747e+01 1.000000000000e+00 
1.003019295747e+01 1.000000000000e+00 
1.031522361810e+01 1.000000000000e+00 
1.031522361810e+01 1.000000000000e+00 
1.059740397310e+01 1.000000000000e+00 
1.059740397310e+01 1.000000000000e+00 
1.087676252393e+01 1.000000000000e+00 
1.087676252393e+01 1.000000000000e+00 
1.115332748959e+01 1.000000000000e+00 
1.115332748959e+01 1.000000000000e+00 
1.142712680544e+01 1.000000000000e+00 
1.142712680544e+01 1.000000000000e+00 
1.169818812676e+01 1.000000000000e+00 
1.169818812676e+01 1.000000000000e+00 
1.196653883645e+01 1.000000000000e+00 
1.196653883645e+01 1.000000000000e+00 
1.223220603937e+01 1.000000000000e+00 
1.223220603937e+01 1.000000000000e+00 
1.249521657012e+01 1.000000000000e+00 
1.249521657012e+01 1.000000000000e+00 
1.275559699610e+01 1.000000000000e+00 
1.275559699610e+01 1.000000000000e+00 
1.301337361853e+01 1.000000000000e+00 
1.301337361853e+01 1.000000000000e+00 
1.326857247535e+01 1.000000000000e+00 
1.326857247535e+01 1.000000000000e+00 
1.352121934215e+01 1.000000000000e+00 
1.352121934215e+01 1.000000000000e+00 
1.377133973956e+01 1.000000000000e+00 
1.377133973956e+01 1.000000000000e+00 
1.401895893383e+01 1.000000000000e+00 
1.401895893383e+01 1.000000000000e+00 
1.426410193533e+01 1.000000000000e+00 
1.426410193533e+01 1.000000000000e+00 
1.450679350577e+01 1.000000000000e+00 
1.450679350577e+01 1.000000000000e+00 
1.474705816096e+01 1.000000000000e+00 
1.474705816096e+01 1.000000000000e+00 
1.498492016905e+01 1.000000000000e+00 
1.498492016905e+01 1.000000000000e+00 
1.522040355766e+01 1.000000000000e+00 
1.522040355766e+01 1.000000000000e+00 
1.545353211423e+01 1.000000000000e+00 
1.545353211423e+01 1.000000000000e+00 
1.568432938408e+01 1.000000000000e+00 
1.568432938408e+01 1.000000000000e+00 
1.591281867978e+01 1.000000000000e+00 
1.591281867978e+01 1.000000000000e+00 
1.613902308343e+01 1.000000000000e+00 
1.613902308343e+01 1.000000000000e+00 
1.636296544468e+01 1.000000000000e+00 
1.636296544468e+01 1.000000000000e+00 
1.658466838309e+01 1.000000000000e+00 
1.658466838309e+01 1.000000000000e+00 
1.680415429045e+01 1.000000000000e+00 
1.680415429045e+01 1.000000000000e+00 
1.702144533761e+01 1.000000000000e+00 
1.702144533761e+01 1.000000000000e+00 
1.723656347436e+01 1.000000000000e+00 
1.723656347436e+01 1.000000000000e+00 
1.744953042940e+01 1.000000000000e+00 
1.744953042940e+01 1.000000000000e+00 
1.766036771480e+01 1.000000000000e+00 
1.766036771480e+01 1.000000000000e+00 
1.786909662801e+01 1.000000000000e+00 
1.786909662801e+01 1.000000000000e+00 
1.807573825396e+01 1.000000000000e+00 
1.807573825396e+01 1.000000000000e+00 
1.828031346254e+01 1.000000000000e+00 
1.828031346254e+01 1.000000000000e+00 
1.848284291744e+01 1.000000000000e+00 
1.848284291744e+01 1.000000000000e+00 
1.868334707792e+01 1.000000000000e+00 
1.868334707792e+01 1.000000000000e+00 
1.888184619627e+01 1.000000000000e+00 
1.888184619627e+01 1.000000000000e+00 
1.907836032415e+01 1.000000000000e+00 
1.907836032415e+01 1.000000000000e+00 
1.927290931213e+01 1.000000000000e+00 
1.927290931213e+01 1.000000000000e+00 
1.946551281146e+01 1.000000000000e+00 
1.946551281146e+01 1.000000000000e+00 
1.965619027579e+01 1.000000000000e+00 
1.965619027579e+01 1.000000000000e+00 
1.984496096516e+01 1.000000000000e+00 
1.984496096516e+01 1.000000000000e+00 
2.003184394756e+01 1.000000000000e+00 
2.003184394756e+01 1.000000000000e+00 
2.021685810057e+01 1.000000000000e+00 
2.021685810057e+01 1.000000000000e+00 
2.040002211069e+01 1.000000000000e+00 
2.040002211069e+01 1.000000000000e+00 
2.058135447938e+01 1.000000000000e+00 
2.058135447938e+01 1.000000000000e+00 
2.076087352447e+01 1.000000000000e+00 
2.076087352447e+01 1.000000000000e+00 
2.093859737947e+01 1.000000000000e+00 
2.093859737947e+01 1.000000000000e+00 
2.111454399713e+01 1.000000000000e+00 
2.111454399713e+01 1.000000000000e+00 
2.128873114865e+01 1.000000000000e+00 
2.128873114865e+01 1.000000000000e+00 
2.146117642951e+01 1.000000000000e+00 
2.146117642951e+01 1.000000000000e+00 
2.163189725849e+01 1.000000000000e+00 
2.163189725849e+01 1.000000000000e+00 
2.180091087897e+01 1.000000000000e+00 
2.180091087897e+01 1.000000000000e+00 
2.196823436244e+01 1.000000000000e+00 
2.196823436244e+01 1.000000000000e+00 
2.213388460967e+01 1.000000000000e+00 
2.213388460967e+01 1.000000000000e+00 
2.229787835416e+01 1.000000000000e+00 
2.229787835416e+01 1.000000000000e+00 
2.246023216093e+01 1.000000000000e+00 
2.246023216093e+01 1.000000000000e+00 
2.262096242998e+01 1.000000000000e+00 
2.262096242998e+01 1.000000000000e+00 
2.278008539728e+01 1.000000000000e+00 
2.278008539728e+01 1.000000000000e+00 
2.293761713360e+01 1.000000000000e+00 
2.293761713360e+01 1.000000000000e+00 
2.309357355226e+01 1.000000000000e+00 
2.309357355226e+01 1.000000000000e+00 
2.324797040780e+01 1.000000000000e+00 
2.324797040780e+01 1.000000000000e+00 
2.340082329468e+01 1.000000000000e+00 
2.340082329468e+01 1.000000000000e+00 
2.355214765275e+01 1.000000000000e+00 
2.355214765275e+01 1.000000000000e+00 
2.370195876802e+01 1.000000000000e+00 
2.370195876802e+01 1.000000000000e+00 
2.385027177131e+01 1.000000000000e+00 
2.385027177131e+01 1.000000000000e+00 
2.399710164360e+01 1.000000000000e+00 
2.399710164360e+01 1.000000000000e+00 
2.414246321895e+01 1.000000000000e+00 
2.414246321895e+01 1.000000000000e+00 
2.428637117854e+01 1.000000000000e+00 
2.428637117854e+01 1.000000000000e+00 
2.442884005824e+01 1.000000000000e+00 
2.442884005824e+01 1.000000000000e+00 
2.456988424912e+01 1.000000000000e+00 
2.456988424912e+01 1.000000000000e+00 
2.470951799827e+01 1.000000000000e+00 
2.470951799827e+01 1.000000000000e+00 
2.484775540934e+01 1.000000000000e+00 
2.484775540934e+01 1.000000000000e+00 
2.498461044543e+01 1.000000000000e+00 
2.498461044543e+01 1.000000000000e+00 
2.512009693189e+01 1.000000000000e+00 
2.512009693189e+01 1.000000000000e+00 
2.525422855236e+01 1.000000000000e+00 
2.525422855236e+01 1.000000000000e+00 
2.538701885608e+01 1.000000000000e+00 
2.538701885608e+01 1.000000000000e+00 
2.551848125833e+01 1.000000000000e+00 
2.551848125833e+01 1.000000000000e+00 
2.564862903640e+01 1.000000000000e+00 
2.564862903640e+01 1.000000000000e+00 
2.577747533681e+01 1.000000000000e+00 
2.577747533681e+01 1.000000000000e+00 
2.590503317567e+01 1.000000000000e+00 
2.590503317567e+01 1.000000000000e+00 
2.603131543460e+01 1.000000000000e+00 
2.603131543460e+01 1.000000000000e+00 
2.615633487010e+01 1.000000000000e+00 
2.615633487010e+01 1.000000000000e+00 
2.628010411157e+01 1.000000000000e+00 
2.628010411157e+01 1.000000000000e+00 
2.640263566165e+01 1.000000000000e+00 
2.640263566165e+01 1.000000000000e+00 
2.652394189646e+01 1.000000000000e+00 
2.652394189646e+01 1.000000000000e+00 
2.664403506819e+01 1.000000000000e+00 
2.664403506819e+01 1.000000000000e+00 
2.676292730749e+01 1.000000000000e+00 
2.676292730749e+01 1.000000000000e+00 
2.688063062371e+01 1.000000000000e+00 
2.688063062371e+01 1.000000000000e+00 
2.699715690733e+01 1.000000000000e+00 
2.699715690733e+01 1.000000000000e+00 
2.711251792783e+01 1.000000000000e+00 
2.711251792783e+01 1.000000000000e+00 
2.722672533837e+01 1.000000000000e+00 
2.722672533837e+01 1.000000000000e+00 
2.733979067584e+01 1.000000000000e+00 
2.733979067584e+01 1.000000000000e+00 
2.745172536099e+01 1.000000000000e+00 
2.745172536099e+01 1.000000000000e+00 
2.756254069846e+01 1.000000000000e+00 
2.756254069846e+01 1.000000000000e+00 
2.767224788139e+01 1.000000000000e+00 
2.767224788139e+01 1.000000000000e+00 
2.778085799355e+01 1.000000000000e+00 
2.778085799355e+01 1.000000000000e+00 
2.788838200492e+01 1.000000000000e+00 
2.788838200492e+01 1.000000000000e+00 
2.799483077616e+01 1.000000000000e+00 
2.799483077616e+01 1.000000000000e+00 
2.810021506075e+01 1.000000000000e+00 
2.810021506075e+01 1.000000000000e+00 
2.820454550273e+01 1.000000000000e+00 
2.820454550273e+01 1.000000000000e+00 
2.830783263881e+01 1.000000000000e+00 
2.830783263881e+01 1.000000000000e+00 
2.841008690281e+01 1.000000000000e+00 
2.841008690281e+01 1.000000000000e+00 
2.851131862540e+01 1.000000000000e+00 
2.851131862540e+01 1.000000000000e+00 
2.861153803179e+01 1.000000000000e+00 
2.861153803179e+01 1.000000000000e+00 
2.871075524376e+01 1.000000000000e+00 
2.871075524376e+01 1.000000000000e+00 
2.880898028173e+01 1.000000000000e+00 
2.880898028173e+01 1.000000000000e+00 
2.890622306906e+01 1.000000000000e+00 
2.890622306906e+01 1.000000000000e+00 
2.900249342943e+01 1.000000000000e+00 
2.900249342943e+01 1.000000000000e+00 
2.909780108672e+01 1.000000000000e+00 
2.909780108672e+01 1.000000000000e+00 
2.919215566688e+01 1.000000000000e+00 
2.919215566688e+01 1.000000000000e+00 
2.928556669997e+01 1.000000000000e+00 
2.928556669997e+01 1.000000000000e+00 
2.937804362425e+01 1.000000000000e+00 
2.937804362425e+01 1.000000000000e+00 
2.946959577909e+01 1.000000000000e+00 
2.946959577909e+01 1.000000000000e+00 
2.956023241146e+01 1.000000000000e+00 
2.956023241146e+01 1.000000000000e+00 
2.964996267766e+01 1.000000000000e+00 
2.964996267766e+01 1.000000000000e+00 
2.973879564079e+01 1.000000000000e+00 
2.973879564079e+01 1.000000000000e+00 
2.982674027474e+01 1.000000000000e+00 
2.982674027474e+01 1.000000000000e+00 
2.991380546382e+01 1.000000000000e+00 
2.991380546382e+01 1.000000000000e+00 
3.000000000000e+01 1.000000000000e+00 
3.000000000000e+01 1.000000000000e+00 
 TITLE = "Profiles along polylines"
 VARIABLES = "DIST" "SATURATION1" 
 ZONE T="TIME=1.797693134862e+308"
0.000000000000e+00 1.000000000000e+00 
0.000000000000e+00 1.000000000000e+00 
3.853325904026e-01 1.000000000000e+00 
3.853325904026e-01 1.000000000000e+00 
7.668118569391e-01 1.000000000000e+00 
7.668118569391e-01 1.000000000000e+00 
1.144476331261e+00 1.000000000000e+00 
1.144476331261e+00 1.000000000000e+00 
1.518364160756e+00 1.000000000000e+00 
1.518364160756e+00 1.000000000000e+00 
1.888513111735e+00 1.000000000000e+00 
1.888513111735e+00 1.000000000000e+00 
2.254960572587e+00 1.000000000000e+00 
2.254960572587e+00 1.000000000000e+00 
2.617743559071e+00 1.000000000000e+00 
2.617743559071e+00 1.000000000000e+00 
2.976898715045e+00 1.000000000000e+00 
2.976898715045e+00 1.000000000000e+00 
3.332462317634e+00 1.000000000000e+00 
3.332462317634e+00 1.000000000000e+00 
3.684470284690e+00 1.000000000000e+00 
3.684470284690e+00 1.000000000000e+00 
4.032958172690e+00 1.000000000000e+00 
4.032958172690e+00 1.000000000000e+00 
4.377961182086e+00 1.000000000000e+00 
4.377961182086e+00 1.000000000000e+00 
4.719514161942e+00 1.000000000000e+00 
4.719514161942e+00 1.000000000000e+00 
5.057651612557e+00 1.000000000000e+00 
5.057651612557e+00 1.000000000000e+00 
5.392407687905e+00 1.000000000000e+00 
5.392407687905e+00 1.000000000000e+00 
5.723816202601e+00 1.000000000000e+00 
5.723816202601e+00 1.000000000000e+00 
6.051910631882e+00 1.000000000000e+00 
6.051910631882e+00 1.000000000000e+00 
6.376724116257e+00 1.000000000000e+00 
6.376724116257e+00 1.000000000000e+00 
6.698289465825e+00 1.000000000000e+00 
6.698289465825e+00 1.000000000000e+00 
7.016639162519e+00 1.000000000000e+00 
7.016639162519e+00 1.000000000000e+00 
7.331805362068e+00 1.000000000000e+00 
7.331805362068e+00 1.000000000000e+00 
7.643819898382e+00 1.000000000000e+00 
7.643819898382e+00 1.000000000000e+00 
7.952714289854e+00 1.000000000000e+00 
7.952714289854e+00 1.000000000000e+00 
8.258519736812e+00 1.000000000000e+00 
8.258519736812e+00 1.000000000000e+00 
8.561267130059e+00 1.000000000000e+00 
8.561267130059e+00 1.000000000000e+00 
8.860987050331e+00 1.000000000000e+00 
8.860987050331e+00 1.000000000000e+00 
9.157709770050e+00 1.000000000000e+00 
9.157709770050e+00 1.000000000000e+00 
9.451465261671e+00 1.000000000000e+00 
9.451465261671e+00 1.000000000000e+00 
9.742283199200e+00 1.000000000000e+00 
9.742283199200e+00 1.000000000000e+00 
1.003019295747e+01 1.000000000000e+00 
1.003019295747e+01 1.000000000000e+00 
1.031522361810e+01 1.000000000000e+00 
1.031522361810e+01 1.000000000000e+00 
1.059740397310e+01 1.000000000000e+00 
1.059740397310e+01 1.000000000000e+00 
1.087676252393e+01 1.000000000000e+00 
1.087676252393e+01 1.000000000000e+00 
1.115332748959e+01 1.000000000000e+00 
1.115332748959e+01 1.000000000000e+00 
1.142712680544e+01 1.000000000000e+00 
1.142712680544e+01 1.000000000000e+00 
1.169818812676e+01 1.000000000000e+00 
1.169818812676e+01 1.000000000000e+00 
1.196653883645e+01 1.000000000000e+00 
1.196653883645e+01 1.000000000000e+00 
1.223220603937e+01 1.000000000000e+00 
1.223220603937e+01 1.000000000000e+00 
1.249521657012e+01 1.000000000000e+00 
1.249521657012e+01 1.000000000000e+00 
1.275559699610e+01 1.000000000000e+00 
1.275559699610e+01 1.000000000000e+00 
1.301337361853e+01 1.000000000000e+00 
1.301337361853e+01 1.000000000000e+00 
1.326857247535e+01 1.000000000000e+00 
1.326857247535e+01 1.000000000000e+00 
1.352121934215e+01 1.000000000000e+00 
1.352121934215e+01 1.000000000000e+00 
1.377133973956e+01 1.000000000000e+00 
1.377133973956e+01 1.000000000000e+00 
1.401895893383e+01 1.000000000000e+00 
1.401895893383e+01 1.000000000000e+00 
1.426410193533e+01 1.000000000000e+00 
1.426410193533e+01 1.000000000000e+00 
1.450679350577e+01 1.000000000000e+00 
1.450679350577e+01 1.000000000000e+00 
1.474705816096e+01 1.000000000000e+00 
1.474705816096e+01 1.000000000000e+00 
1.498492016905e+01 1.000000000000e+00 
1.498492016905e+01 1.000000000000e+00 
1.522040355766e+01 1.000000000000e+00 
1.522040355766e+01 1.000000000000e+00 
1.545353211423e+01 1.000000000000e+00 
1.545353211423e+01 1.000000000000e+00 
1.568432938408e+01 1.000000000000e+00 
1.568432938408e+01 1.000000000000e+00 
1.591281867978e+01 1.000000000000e+00 
1.591281867978e+01 1.000000000000e+00 
1.613902308343e+01 1.000000000000e+00 
1.613902308343e+01 1.000000000000e+00 
1.636296544468e+01 1.000000000000e+00 
1.636296544468e+01 1.000000000000e+00 
1.658466838309e+01 1.000000000000e+00 
1.658466838309e+01 1.000000000000e+00 
1.680415429045e+01 1.000000000000e+00 
1.680415429045e+01 1.000000000000e+00 
1.702144533761e+01 1.000000000000e+00 
1.702144533761e+01 1.000000000000e+00 
1.723656347436e+01 1.000000000000e+00 
1.723656347436e+01 1.000000000000e+00 
1.744953042940e+01 1.000000000000e+00 
1.744953042940e+01 1.000000000000e+00 
1.766036771480e+01 1.000000000000e+00 
1.766036771480e+01 1.000000000000e+00 
1.786909662801e+01 1.000000000000e+00 
1.786909662801e+01 1.000000000000e+00 
1.807573825396e+01 1.000000000000e+00 
1.807573825396e+01 1.000000000000e+00 
1.828031346254e+01 1.000000000000e+00 
1.828031346254e+01 1.000000000000e+00 
1.848284291744e+01 1.000000000000e+00 
1.848284291744e+01 1.000000000000e+00 
1.868334707792e+01 1.000000000000e+00 
1.868334707792e+01 1.000000000000e+00 
1.888184619627e+01 1.000000000000e+00 
1.888184619627e+01 1.000000000000e+00 
1.907836032415e+01 1.000000000000e+00 
1.907836032415e+01 1.000000000000e+00 
1.927290931213e+01 1.000000000000e+00 
1.927290931213e+01 1.000000000000e+00 
1.946551281146e+01 9.709462020529e-01 
1.946551281146e+01 9.762983305872e-01 
1.965619027579e+01 9.294975620944e-01 
1.965619027579e+01 9.349795488805e-01 
1.984496096516e+01 8.896384839468e-01 
1.984496096516e+01 8.947719126966e-01 
2.003184394756e+01 8.535278576440e-01 
2.003184394756e+01 8.581694000628e-01 
2.021685810057e+01 8.214336981066e-01 
2.021685810057e+01 8.255877292970e-01 
2.040002211069e+01 7.930272963183e-01 
2.040002211069e+01 7.967428370310e-01 
2.058135447938e+01 7.678362132657e-01 
2.058135447938e+01 7.711708764921e-01 
2.076087352447e+01 7.453973139840e-01 
2.076087352447e+01 7.484051210646e-01 
2.093859737947e+01 7.253027628528e-01 
2.093859737947e+01 7.280307003425e-01 
2.111454399713e+01 7.072077205662e-01 
2.111454399713e+01 7.096954583192e-01 
2.128873114865e+01 6.908251494765e-01 
2.128873114865e+01 6.931058055571e-01 
2.146117642951e+01 6.759171975227e-01 
2.146117642951e+01 6.780183492562e-01 
2.163189725849e+01 6.622865805873e-01 
2.163189725849e+01 6.642312323269e-01 
2.180091087897e+01 6.497690527178e-01 
2.180091087897e+01 6.515764710919e-01 
2.196823436244e+01 6.382271735791e-01 
2.196823436244e+01 6.399135775225e-01 
2.213388460967e+01 6.275452719130e-01 
2.213388460967e+01 6.291243916276e-01 
2.229787835416e+01 6.176254158475e-01 
2.229787835416e+01 6.191089419239e-01 
2.246023216093e+01 6.083841984274e-01 
2.246023216093e+01 6.097821419825e-01 
2.262096242998e+01 5.997501703280e-01 
2.262096242998e+01 6.010711521814e-01 
2.278008539728e+01 5.916617831515e-01 
2.278008539728e+01 5.929132667911e-01 
2.293761713360e+01 5.840657343590e-01 
2.293761713360e+01 5.852542144521e-01 
2.309357355226e+01 5.769156280433e-01 
2.309357355226e+01 5.780467837372e-01 
2.324797040780e+01 5.701708860568e-01 
2.324797040780e+01 5.712497063122e-01 
2.340082329468e+01 5.637958573619e-01 
2.340082329468e+01 5.648267439761e-01 
2.355214765275e+01 5.577590851788e-01 
2.355214765275e+01 5.587459379269e-01 
2.370195876802e+01 5.520327010552e-01 
2.370195876802e+01 5.529789884271e-01 
2.385027177131e+01 5.465919211121e-01 
2.385027177131e+01 5.475007393878e-01 
2.399710164360e+01 5.414146247556e-01 
2.399710164360e+01 5.422887475879e-01 
2.414246321895e+01 5.364810008864e-01 
2.414246321895e+01 5.373229211160e-01 
2.428637117854e+01 5.317732495751e-01 
2.428637117854e+01 5.325852146626e-01 
2.442884005824e+01 5.272753286748e-01 
2.442884005824e+01 5.280593708534e-01 
2.456988424912e+01 5.229727382411e-01 
2.456988424912e+01 5.237307002889e-01 
2.470951799827e+01 5.188523361506e-01 
2.470951799827e+01 5.195858935078e-01 
2.484775540934e+01 5.149021797777e-01 
2.484775540934e+01 5.156128596018e-01 
2.498461044543e+01 5.111113894512e-01 
2.498461044543e+01 5.118005870952e-01 
2.512009693189e+01 5.074700303275e-01 
2.512009693189e+01 5.081390236403e-01 
2.525422855236e+01 5.039690099977e-01 
2.525422855236e+01 5.046189717786e-01 
2.538701885608e+01 5.005999890026e-01 
2.538701885608e+01 5.012319978819e-01 
2.551848125833e+01 4.973553027956e-01 
2.551848125833e+01 4.979703527707e-01 
2.564862903640e+01 4.942278934324e-01 
2.564862903640e+01 4.948269022516e-01 
2.577747533681e+01 4.912112492420e-01 
2.577747533681e+01 4.917950657954e-01 
2.590503317567e+01 4.882993517903e-01 
2.590503317567e+01 4.888687626438e-01 
2.603131543460e+01 4.854866290799e-01 
2.603131543460e+01 4.860423642670e-01 
2.615633487010e+01 4.827679137695e-01 
2.615633487010e+01 4.833106519387e-01 
2.628010411157e+01 4.801384062861e-01 
2.628010411157e+01 4.806687792857e-01 
2.640263566165e+01 4.775936419106e-01 
2.640263566165e+01 4.781122388832e-01 
2.652394189646e+01 4.751294613886e-01 
2.652394189646e+01 4.756368324361e-01 
2.664403506819e+01 4.727419845827e-01 
2.664403506819e+01 4.732386440524e-01 
2.676292730749e+01 4.704275868441e-01 
2.676292730749e+01 4.709140162835e-01 
2.688063062371e+01 4.681828778192e-01 
2.688063062371e+01 4.686595286361e-01 
2.699715690733e+01 4.660046823232e-01 
2.699715690733e+01 4.664719781870e-01 
2.711251792783e+01 4.638900231640e-01 
2.711251792783e+01 4.643483621762e-01 
2.722672533837e+01 4.618361054952e-01 
2.722672533837e+01 4.622858621557e-01 
2.733979067584e+01 4.598403027277e-01 
2.733979067584e+01 4.602818297185e-01 
2.745172536099e+01 4.579001437473e-01 
2.745172536099e+01 4.583337735539e-01 
2.756254069846e+01 4.560133013012e-01 
2.756254069846e+01 4.564393476889e-01 
2.767224788139e+01 4.541775813519e-01 
2.767224788139e+01 4.545963407114e-01 
2.778085799355e+01 4.523909134132e-01 
2.778085799355e+01 4.528026659892e-01 
2.788838200492e+01 4.506513418328e-01 
2.788838200492e+01 4.510563528487e-01 
2.799483077616e+01 4.489570176800e-01 
2.799483077616e+01 4.493555383670e-01 
2.810021506075e+01 4.473061913551e-01 
2.810021506075e+01 4.476984598965e-01 
2.820454550273e+01 4.456972058810e-01 
2.820454550273e+01 4.460834482792e-01 
2.830783263881e+01 4.441284906759e-01 
2.830783263881e+01 4.445089215502e-01 
2.841008690281e+01 4.425985557969e-01 
2.841008690281e+01 4.429733791172e-01 
2.851131862540e+01 4.411059867073e-01 
2.851131862540e+01 4.414753964715e-01 
2.861153803179e+01 4.396494394868e-01 
2.861153803179e+01 4.400136203452e-01 
2.871075524376e+01 4.382276363469e-01 
2.871075524376e+01 4.385867641800e-01 
2.880898028173e+01 4.368393614901e-01 
2.880898028173e+01 4.371936039425e-01 
2.890622306906e+01 4.354834572481e-01 
2.890622306906e+01 4.358329742234e-01 
2.900249342943e+01 4.341588206018e-01 
2.900249342943e+01 4.345037647211e-01 
2.909780108672e+01 4.328643999225e-01 
2.909780108672e+01 4.332049169501e-01 
2.919215566688e+01 4.315991919208e-01 
2.919215566688e+01 4.319354211601e-01 
2.928556669997e+01 4.303622388120e-01 
2.928556669997e+01 4.306943134729e-01 
2.937804362425e+01 4.291526256538e-01 
2.937804362425e+01 4.294806731953e-01 
2.946959577909e+01 4.279694780126e-01 
2.946959577909e+01 4.282936204620e-01 
2.956023241146e+01 4.268119596178e-01 
2.956023241146e+01 4.271323138679e-01 
2.964996267766e+01 4.256792702343e-01 
2.964996267766e+01 4.259959483213e-01 
2.973879564079e+01 4.245706437313e-01 
2.973879564079e+01 4.248837530944e-01 
2.982674027474e+01 4.234853461971e-01 
2.982674027474e+01 4.237949899210e-01 
2.991380546382e+01 4.224226742324e-01 
2.991380546382e+01 4.227289512743e-01 
3.000000000000e+01 4.213819445489e-01 
3.000000000000e+01 4.216849498964e-01 
