 TITLE = "Profiles along polylines"
 VARIABLES = "DIST" "HEAD" "VELOCITY_X1" "VELOCITY_Y1" "VELOCITY_Z1" 
 ZONE T="TIME=0.000000000000e+00"
0.000000000000e+00 3.000000000000e+01 0.000000000000e+00 0.000000000000e+00 0.000000000000e+00 
1.000000000000e+00 3.000000000000e+01 0.000000000000e+00 0.000000000000e+00 0.000000000000e+00 
2.000000000000e+00 3.000000000000e+01 0.000000000000e+00 0.000000000000e+00 0.000000000000e+00 
3.000000000000e+00 3.000000000000e+01 0.000000000000e+00 0.000000000000e+00 0.000000000000e+00 
4.000000000000e+00 3.000000000000e+01 0.000000000000e+00 0.000000000000e+00 0.000000000000e+00 
5.000000000000e+00 3.000000000000e+01 0.000000000000e+00 0.000000000000e+00 0.000000000000e+00 
6.000000000000e+00 3.000000000000e+01 0.000000000000e+00 0.000000000000e+00 0.000000000000e+00 
7.000000000000e+00 3.000000000000e+01 0.000000000000e+00 0.000000000000e+00 0.000000000000e+00 
8.000000000000e+00 3.000000000000e+01 0.000000000000e+00 0.000000000000e+00 0.000000000000e+00 
9.000000000000e+00 3.000000000000e+01 0.000000000000e+00 0.000000000000e+00 0.000000000000e+00 
1.000000000000e+01 3.000000000000e+01 0.000000000000e+00 0.000000000000e+00 0.000000000000e+00 
1.100000000000e+01 3.000000000000e+01 0.000000000000e+00 0.000000000000e+00 0.000000000000e+00 
1.200000000000e+01 3.000000000000e+01 0.000000000000e+00 0.000000000000e+00 0.000000000000e+00 
1.300000000000e+01 3.000000000000e+01 0.000000000000e+00 0.000000000000e+00 0.000000000000e+00 
1.400000000000e+01 3.000000000000e+01 0.000000000000e+00 0.000000000000e+00 0.000000000000e+00 
1.500000000000e+01 3.000000000000e+01 0.000000000000e+00 0.000000000000e+00 0.000000000000e+00 
1.600000000000e+01 3.000000000000e+01 0.000000000000e+00 0.000000000000e+00 0.000000000000e+00 
1.700000000000e+01 3.000000000000e+01 0.000000000000e+00 0.000000000000e+00 0.000000000000e+00 
1.800000000000e+01 3.000000000000e+01 0.000000000000e+00 0.000000000000e+00 0.000000000000e+00 
1.900000000000e+01 3.000000000000e+01 0.000000000000e+00 0.000000000000e+00 0.000000000000e+00 
2.000000000000e+01 3.000000000000e+01 0.000000000000e+00 0.000000000000e+00 0.000000000000e+00 
2.100000000000e+01 3.000000000000e+01 0.000000000000e+00 0.000000000000e+00 0.000000000000e+00 
2.200000000000e+01 3.000000000000e+01 0.000000000000e+00 0.000000000000e+00 0.000000000000e+00 
2.300000000000e+01 3.000000000000e+01 0.000000000000e+00 0.000000000000e+00 0.000000000000e+00 
2.400000000000e+01 3.000000000000e+01 0.000000000000e+00 0.000000000000e+00 0.000000000000e+00 
2.500000000000e+01 3.000000000000e+01 0.000000000000e+00 0.000000000000e+00 0.000000000000e+00 
2.600000000000e+01 3.000000000000e+01 0.000000000000e+00 0.000000000000e+00 0.000000000000e+00 
2.700000000000e+01 3.000000000000e+01 0.000000000000e+00 0.000000000000e+00 0.000000000000e+00 
2.800000000000e+01 3.000000000000e+01 0.000000000000e+00 0.000000000000e+00 0.000000000000e+00 
2.900000000000e+01 3.000000000000e+01 0.000000000000e+00 0.000000000000e+00 0.000000000000e+00 
3.000000000000e+01 3.000000000000e+01 0.000000000000e+00 0.000000000000e+00 0.000000000000e+00 
 TITLE = "Profiles along polylines"
 VARIABLES = "DIST" "HEAD" "VELOCITY_X1" "VELOCITY_Y1" "VELOCITY_Z1" 
 ZONE T="TIME=1.797693134862e+308"
0.000000000000e+00 3.054780415671e+01 1.318325555869e-11 -1.318326259317e-11 0.000000000000e+00 
1.000000000000e+00 3.054780470941e+01 2.236166724410e-10 -2.367893499372e-10 0.000000000000e+00 
2.000000000000e+00 3.054780529566e+01 2.416301240079e-10 -7.021208513611e-10 0.000000000000e+00 
3.000000000000e+00 3.054781588681e+01 6.488432890405e-11 -1.008741416321e-09 0.000000000000e+00 
4.000000000000e+00 3.054782325646e+01 4.496040571134e-11 -1.118613578840e-09 0.000000000000e+00 
5.000000000000e+00 3.054789158449e+01 1.057787827800e-11 -1.174171393013e-09 0.000000000000e+00 
6.000000000000e+00 3.054794734143e+01 1.634741780501e-10 -1.348229020102e-09 0.000000000000e+00 
7.000000000000e+00 3.054794999276e+01 2.463811763071e-10 -1.758063771720e-09 0.000000000000e+00 
8.000000000000e+00 3.054795623385e+01 8.915726252341e-11 -2.093549858418e-09 0.000000000000e+00 
9.000000000000e+00 3.054956456879e+01 1.288541941982e-11 -2.195562359562e-09 0.000000000000e+00 
1.000000000000e+01 3.054961335480e+01 1.273337946950e-11 -2.221185477321e-09 0.000000000000e+00 
1.100000000000e+01 3.055236109378e+01 3.321500855434e-12 -2.237245799058e-09 0.000000000000e+00 
1.200000000000e+01 3.055256103422e+01 9.241450806908e-12 -2.249809917263e-09 0.000000000000e+00 
1.300000000000e+01 3.055266262805e+01 1.331837177055e-11 -2.272373527757e-09 0.000000000000e+00 
1.400000000000e+01 3.055275067256e+01 7.982413598041e-12 -2.293680268127e-09 0.000000000000e+00 
1.500000000000e+01 3.055353698250e+01 4.905492018719e-12 -2.306571818021e-09 0.000000000000e+00 
1.600000000000e+01 3.055369290943e+01 2.819526543416e-10 -2.593412532570e-09 0.000000000000e+00 
1.700000000000e+01 3.055369576922e+01 2.905672998856e-10 -3.166039465925e-09 0.000000000000e+00 
1.800000000000e+01 3.055377074255e+01 1.473227053164e-10 -3.604050143831e-09 0.000000000000e+00 
1.900000000000e+01 3.055377844547e+01 1.505323602140e-10 -3.901972282033e-09 0.000000000000e+00 
2.000000000000e+01 3.055384856924e+01 2.008375189345e-11 -4.072669072991e-09 0.000000000000e+00 
2.100000000000e+01 3.055412334800e+01 7.190044008763e-12 -4.099952473140e-09 0.000000000000e+00 
2.200000000000e+01 3.055449255110e+01 3.978693841208e-12 -4.111122916501e-09 0.000000000000e+00 
2.300000000000e+01 3.055574921276e+01 1.987261252684e-11 -4.134975073220e-09 0.000000000000e+00 
2.400000000000e+01 3.055580974593e+01 2.006496478791e-11 -4.174921236849e-09 0.000000000000e+00 
2.500000000000e+01 3.055686430837e+01 3.759197431818e-10 -4.570884103762e-09 0.000000000000e+00 
2.600000000000e+01 3.055686795550e+01 3.748235765421e-10 -5.321793523158e-09 0.000000000000e+00 
2.700000000000e+01 3.058780171617e+01 9.295309255080e-13 -5.697743962105e-09 0.000000000000e+00 
2.800000000000e+01 3.058959404138e+01 1.774472296030e-11 -5.716417030742e-09 0.000000000000e+00 
2.900000000000e+01 3.058968799512e+01 1.728977215865e-11 -5.751459062136e-09 0.000000000000e+00 
3.000000000000e+01 3.059342912058e+01 8.520687915646e-13 -5.768757596683e-09 0.000000000000e+00 
