 TITLE = "Profiles along polylines"
 VARIABLES = "DIST" "HEAD" "VELOCITY_X1" "VELOCITY_Y1" "VELOCITY_Z1" 
 ZONE T="TIME=0.000000000000e+00"
0.000000000000e+00 3.000000000000e+01 0.000000000000e+00 0.000000000000e+00 0.000000000000e+00 
1.000000000000e+00 3.000000000000e+01 0.000000000000e+00 0.000000000000e+00 0.000000000000e+00 
2.000000000000e+00 3.000000000000e+01 0.000000000000e+00 0.000000000000e+00 0.000000000000e+00 
3.000000000000e+00 3.000000000000e+01 0.000000000000e+00 0.000000000000e+00 0.000000000000e+00 
4.000000000000e+00 3.000000000000e+01 0.000000000000e+00 0.000000000000e+00 0.000000000000e+00 
5.000000000000e+00 3.000000000000e+01 0.000000000000e+00 0.000000000000e+00 0.000000000000e+00 
6.000000000000e+00 3.000000000000e+01 0.000000000000e+00 0.000000000000e+00 0.000000000000e+00 
7.000000000000e+00 3.000000000000e+01 0.000000000000e+00 0.000000000000e+00 0.000000000000e+00 
8.000000000000e+00 3.000000000000e+01 0.000000000000e+00 0.000000000000e+00 0.000000000000e+00 
9.000000000000e+00 3.000000000000e+01 0.000000000000e+00 0.000000000000e+00 0.000000000000e+00 
1.000000000000e+01 3.000000000000e+01 0.000000000000e+00 0.000000000000e+00 0.000000000000e+00 
1.100000000000e+01 3.000000000000e+01 0.000000000000e+00 0.000000000000e+00 0.000000000000e+00 
1.200000000000e+01 3.000000000000e+01 0.000000000000e+00 0.000000000000e+00 0.000000000000e+00 
1.300000000000e+01 3.000000000000e+01 0.000000000000e+00 0.000000000000e+00 0.000000000000e+00 
1.400000000000e+01 3.000000000000e+01 0.000000000000e+00 0.000000000000e+00 0.000000000000e+00 
1.500000000000e+01 3.000000000000e+01 0.000000000000e+00 0.000000000000e+00 0.000000000000e+00 
1.600000000000e+01 3.000000000000e+01 0.000000000000e+00 0.000000000000e+00 0.000000000000e+00 
1.700000000000e+01 3.000000000000e+01 0.000000000000e+00 0.000000000000e+00 0.000000000000e+00 
1.800000000000e+01 3.000000000000e+01 0.000000000000e+00 0.000000000000e+00 0.000000000000e+00 
1.900000000000e+01 3.000000000000e+01 0.000000000000e+00 0.000000000000e+00 0.000000000000e+00 
2.000000000000e+01 3.000000000000e+01 0.000000000000e+00 0.000000000000e+00 0.000000000000e+00 
2.100000000000e+01 3.000000000000e+01 0.000000000000e+00 0.000000000000e+00 0.000000000000e+00 
2.200000000000e+01 3.000000000000e+01 0.000000000000e+00 0.000000000000e+00 0.000000000000e+00 
2.300000000000e+01 3.000000000000e+01 0.000000000000e+00 0.000000000000e+00 0.000000000000e+00 
2.400000000000e+01 3.000000000000e+01 0.000000000000e+00 0.000000000000e+00 0.000000000000e+00 
2.500000000000e+01 3.000000000000e+01 0.000000000000e+00 0.000000000000e+00 0.000000000000e+00 
2.600000000000e+01 3.000000000000e+01 0.000000000000e+00 0.000000000000e+00 0.000000000000e+00 
2.700000000000e+01 3.000000000000e+01 0.000000000000e+00 0.000000000000e+00 0.000000000000e+00 
2.800000000000e+01 3.000000000000e+01 0.000000000000e+00 0.000000000000e+00 0.000000000000e+00 
2.900000000000e+01 3.000000000000e+01 0.000000000000e+00 0.000000000000e+00 0.000000000000e+00 
3.000000000000e+01 3.000000000000e+01 0.000000000000e+00 0.000000000000e+00 0.000000000000e+00 
 TITLE = "Profiles along polylines"
 VARIABLES = "DIST" "HEAD" "VELOCITY_X1" "VELOCITY_Y1" "VELOCITY_Z1" 
 ZONE T="TIME=1.797693134862e+308"
0.000000000000e+00 3.010102075982e+01 2.334969112535e-08 -9.980575243428e-12 0.000000000000e+00 
1.000000000000e+00 3.010102117825e+01 3.960620263325e-07 -1.792770390645e-10 0.000000000000e+00 
2.000000000000e+00 3.010102162211e+01 4.280075437597e-07 -5.315329706248e-10 0.000000000000e+00 
3.000000000000e+00 3.010102963962e+01 1.149314611516e-07 -7.636573466482e-10 0.000000000000e+00 
4.000000000000e+00 3.010103521900e+01 7.964818697641e-08 -8.469094792813e-10 0.000000000000e+00 
5.000000000000e+00 3.010108695263e+01 1.874228558800e-08 -8.890548359045e-10 0.000000000000e+00 
6.000000000000e+00 3.010112917265e+01 2.896441131152e-07 -1.022108240794e-09 0.000000000000e+00 
7.000000000000e+00 3.010113118452e+01 4.365317861475e-07 -1.335517829337e-09 0.000000000000e+00 
8.000000000000e+00 3.010113592953e+01 1.579596581995e-07 -1.592138593550e-09 0.000000000000e+00 
9.000000000000e+00 3.010235937657e+01 2.298162636188e-08 -1.671321076603e-09 0.000000000000e+00 
1.000000000000e+01 3.010239653960e+01 2.271781084317e-08 -1.693178253975e-09 0.000000000000e+00 
1.100000000000e+01 3.010449254192e+01 5.989432345398e-09 -1.707388180622e-09 0.000000000000e+00 
1.200000000000e+01 3.010464520035e+01 1.667799189140e-08 -1.720078283422e-09 0.000000000000e+00 
1.300000000000e+01 3.010472297650e+01 2.404560725550e-08 -1.743003744615e-09 0.000000000000e+00 
1.400000000000e+01 3.010479063916e+01 1.441712185419e-08 -1.764735383992e-09 0.000000000000e+00 
1.500000000000e+01 3.010539630964e+01 8.885570841892e-09 -1.778127910672e-09 0.000000000000e+00 
1.600000000000e+01 3.010551661051e+01 5.110033947987e-07 -2.086010100189e-09 0.000000000000e+00 
1.700000000000e+01 3.010551898625e+01 5.266756282534e-07 -2.700645291102e-09 0.000000000000e+00 
1.800000000000e+01 3.010558432728e+01 2.670631412814e-07 -3.171327341273e-09 0.000000000000e+00 
1.900000000000e+01 3.010559116504e+01 2.729218431176e-07 -3.492264082724e-09 0.000000000000e+00 
2.000000000000e+01 3.010565440065e+01 3.641834887837e-08 -3.676207752606e-09 0.000000000000e+00 
2.100000000000e+01 3.010590267051e+01 1.304385183411e-08 -3.705782453397e-09 0.000000000000e+00 
2.200000000000e+01 3.010623650106e+01 7.223962908974e-09 -3.718066108612e-09 0.000000000000e+00 
2.300000000000e+01 3.010737326610e+01 3.617140255685e-08 -3.745718199923e-09 0.000000000000e+00 
2.400000000000e+01 3.010742817702e+01 3.652959441654e-08 -3.792464368545e-09 0.000000000000e+00 
2.500000000000e+01 3.010838745991e+01 6.857286998048e-07 -4.274256479781e-09 0.000000000000e+00 
2.600000000000e+01 3.010839094909e+01 6.838188390323e-07 -5.189569971076e-09 0.000000000000e+00 
2.700000000000e+01 3.013905207409e+01 1.713732502535e-09 -5.648153116601e-09 0.000000000000e+00 
2.800000000000e+01 3.014082899660e+01 3.273430318577e-08 -5.679694747088e-09 0.000000000000e+00 
2.900000000000e+01 3.014092254937e+01 3.190001618431e-08 -5.738928625108e-09 0.000000000000e+00 
3.000000000000e+01 3.014466329290e+01 1.572227278479e-09 -5.768168651995e-09 0.000000000000e+00 
