VARIABLES = "X","Y","Z",VELOCITY1_X,VELOCITY1_Y,VELOCITY1_Z
ZONE T="0.000000000000e+00s", 
9.890000000000e+02 0.000000000000e+00 5.000000000000e-01 0.000000000000e+00 0.000000000000e+00 0.000000000000e+00
9.900000000000e+02 0.000000000000e+00 5.000000000000e-01 0.000000000000e+00 0.000000000000e+00 0.000000000000e+00
9.890000000000e+02 0.000000000000e+00 1.500000000000e+00 0.000000000000e+00 0.000000000000e+00 0.000000000000e+00
9.900000000000e+02 0.000000000000e+00 1.500000000000e+00 0.000000000000e+00 0.000000000000e+00 0.000000000000e+00
9.890000000000e+02 0.000000000000e+00 2.500000000000e+00 0.000000000000e+00 0.000000000000e+00 0.000000000000e+00
9.900000000000e+02 0.000000000000e+00 2.500000000000e+00 0.000000000000e+00 0.000000000000e+00 0.000000000000e+00
9.890000000000e+02 0.000000000000e+00 3.500000000000e+00 0.000000000000e+00 0.000000000000e+00 0.000000000000e+00
9.900000000000e+02 0.000000000000e+00 3.500000000000e+00 0.000000000000e+00 0.000000000000e+00 0.000000000000e+00
9.890000000000e+02 0.000000000000e+00 4.500000000000e+00 0.000000000000e+00 0.000000000000e+00 0.000000000000e+00
9.900000000000e+02 0.000000000000e+00 4.500000000000e+00 0.000000000000e+00 0.000000000000e+00 0.000000000000e+00
9.890000000000e+02 0.000000000000e+00 5.500000000000e+00 0.000000000000e+00 0.000000000000e+00 0.000000000000e+00
9.900000000000e+02 0.000000000000e+00 5.500000000000e+00 0.000000000000e+00 0.000000000000e+00 0.000000000000e+00
9.890000000000e+02 0.000000000000e+00 6.500000000000e+00 0.000000000000e+00 0.000000000000e+00 0.000000000000e+00
9.900000000000e+02 0.000000000000e+00 6.500000000000e+00 0.000000000000e+00 0.000000000000e+00 0.000000000000e+00
9.890000000000e+02 0.000000000000e+00 7.500000000000e+00 0.000000000000e+00 0.000000000000e+00 0.000000000000e+00
9.900000000000e+02 0.000000000000e+00 7.500000000000e+00 0.000000000000e+00 0.000000000000e+00 0.000000000000e+00
9.890000000000e+02 0.000000000000e+00 8.500000000000e+00 0.000000000000e+00 0.000000000000e+00 0.000000000000e+00
9.900000000000e+02 0.000000000000e+00 8.500000000000e+00 0.000000000000e+00 0.000000000000e+00 0.000000000000e+00
9.890000000000e+02 0.000000000000e+00 9.500000000000e+00 0.000000000000e+00 0.000000000000e+00 0.000000000000e+00
9.900000000000e+02 0.000000000000e+00 9.500000000000e+00 0.000000000000e+00 0.000000000000e+00 0.000000000000e+00
9.890000000000e+02 0.000000000000e+00 1.050000000000e+01 0.000000000000e+00 0.000000000000e+00 0.000000000000e+00
9.900000000000e+02 0.000000000000e+00 1.050000000000e+01 0.000000000000e+00 0.000000000000e+00 0.000000000000e+00
9.890000000000e+02 0.000000000000e+00 1.150000000000e+01 0.000000000000e+00 0.000000000000e+00 0.000000000000e+00
9.900000000000e+02 0.000000000000e+00 1.150000000000e+01 0.000000000000e+00 0.000000000000e+00 0.000000000000e+00
9.890000000000e+02 0.000000000000e+00 1.250000000000e+01 0.000000000000e+00 0.000000000000e+00 0.000000000000e+00
9.900000000000e+02 0.000000000000e+00 1.250000000000e+01 0.000000000000e+00 0.000000000000e+00 0.000000000000e+00
9.890000000000e+02 0.000000000000e+00 1.350000000000e+01 0.000000000000e+00 0.000000000000e+00 0.000000000000e+00
9.900000000000e+02 0.000000000000e+00 1.350000000000e+01 0.000000000000e+00 0.000000000000e+00 0.000000000000e+00
9.890000000000e+02 0.000000000000e+00 1.450000000000e+01 0.000000000000e+00 0.000000000000e+00 0.000000000000e+00
9.900000000000e+02 0.000000000000e+00 1.450000000000e+01 0.000000000000e+00 0.000000000000e+00 0.000000000000e+00
9.890000000000e+02 0.000000000000e+00 1.550000000000e+01 0.000000000000e+00 0.000000000000e+00 0.000000000000e+00
9.900000000000e+02 0.000000000000e+00 1.550000000000e+01 0.000000000000e+00 0.000000000000e+00 0.000000000000e+00
9.890000000000e+02 0.000000000000e+00 1.650000000000e+01 0.000000000000e+00 0.000000000000e+00 0.000000000000e+00
9.900000000000e+02 0.000000000000e+00 1.650000000000e+01 0.000000000000e+00 0.000000000000e+00 0.000000000000e+00
9.890000000000e+02 0.000000000000e+00 1.750000000000e+01 0.000000000000e+00 0.000000000000e+00 0.000000000000e+00
9.900000000000e+02 0.000000000000e+00 1.750000000000e+01 0.000000000000e+00 0.000000000000e+00 0.000000000000e+00
9.890000000000e+02 0.000000000000e+00 1.850000000000e+01 0.000000000000e+00 0.000000000000e+00 0.000000000000e+00
9.900000000000e+02 0.000000000000e+00 1.850000000000e+01 0.000000000000e+00 0.000000000000e+00 0.000000000000e+00
9.890000000000e+02 0.000000000000e+00 1.950000000000e+01 0.000000000000e+00 0.000000000000e+00 0.000000000000e+00
9.900000000000e+02 0.000000000000e+00 1.950000000000e+01 0.000000000000e+00 0.000000000000e+00 0.000000000000e+00
9.890000000000e+02 0.000000000000e+00 2.050000000000e+01 0.000000000000e+00 0.000000000000e+00 0.000000000000e+00
9.900000000000e+02 0.000000000000e+00 2.050000000000e+01 0.000000000000e+00 0.000000000000e+00 0.000000000000e+00
9.890000000000e+02 0.000000000000e+00 2.150000000000e+01 0.000000000000e+00 0.000000000000e+00 0.000000000000e+00
9.900000000000e+02 0.000000000000e+00 2.150000000000e+01 0.000000000000e+00 0.000000000000e+00 0.000000000000e+00
9.890000000000e+02 0.000000000000e+00 2.250000000000e+01 0.000000000000e+00 0.000000000000e+00 0.000000000000e+00
9.900000000000e+02 0.000000000000e+00 2.250000000000e+01 0.000000000000e+00 0.000000000000e+00 0.000000000000e+00
9.890000000000e+02 0.000000000000e+00 2.350000000000e+01 0.000000000000e+00 0.000000000000e+00 0.000000000000e+00
9.900000000000e+02 0.000000000000e+00 2.350000000000e+01 0.000000000000e+00 0.000000000000e+00 0.000000000000e+00
9.890000000000e+02 0.000000000000e+00 2.450000000000e+01 0.000000000000e+00 0.000000000000e+00 0.000000000000e+00
9.900000000000e+02 0.000000000000e+00 2.450000000000e+01 0.000000000000e+00 0.000000000000e+00 0.000000000000e+00
9.890000000000e+02 0.000000000000e+00 2.550000000000e+01 0.000000000000e+00 0.000000000000e+00 0.000000000000e+00
9.900000000000e+02 0.000000000000e+00 2.550000000000e+01 0.000000000000e+00 0.000000000000e+00 0.000000000000e+00
9.890000000000e+02 0.000000000000e+00 2.650000000000e+01 0.000000000000e+00 0.000000000000e+00 0.000000000000e+00
9.900000000000e+02 0.000000000000e+00 2.650000000000e+01 0.000000000000e+00 0.000000000000e+00 0.000000000000e+00
9.890000000000e+02 0.000000000000e+00 2.750000000000e+01 0.000000000000e+00 0.000000000000e+00 0.000000000000e+00
9.900000000000e+02 0.000000000000e+00 2.750000000000e+01 0.000000000000e+00 0.000000000000e+00 0.000000000000e+00
9.890000000000e+02 0.000000000000e+00 2.850000000000e+01 0.000000000000e+00 0.000000000000e+00 0.000000000000e+00
9.900000000000e+02 0.000000000000e+00 2.850000000000e+01 0.000000000000e+00 0.000000000000e+00 0.000000000000e+00
9.890000000000e+02 0.000000000000e+00 2.950000000000e+01 0.000000000000e+00 0.000000000000e+00 0.000000000000e+00
9.900000000000e+02 0.000000000000e+00 2.950000000000e+01 0.000000000000e+00 0.000000000000e+00 0.000000000000e+00
VARIABLES = "X","Y","Z",VELOCITY1_X,VELOCITY1_Y,VELOCITY1_Z
ZONE T="1.797693134862e+308s", 
9.890000000000e+02 0.000000000000e+00 5.000000000000e-01 2.449127419975e-08 -1.489247060159e-12 0.000000000000e+00
9.900000000000e+02 0.000000000000e+00 5.000000000000e-01 2.449401202737e-08 -1.353704463488e-12 0.000000000000e+00
9.890000000000e+02 0.000000000000e+00 1.500000000000e+00 8.063629299794e-07 -5.201804909882e-11 0.000000000000e+00
9.900000000000e+02 0.000000000000e+00 1.500000000000e+00 8.064530819618e-07 -4.728289198040e-11 0.000000000000e+00
9.890000000000e+02 0.000000000000e+00 2.500000000000e+00 9.150579475868e-08 -1.066235334561e-10 0.000000000000e+00
9.900000000000e+02 0.000000000000e+00 2.500000000000e+00 9.151602932821e-08 -9.692116919067e-11 0.000000000000e+00
9.890000000000e+02 0.000000000000e+00 3.500000000000e+00 1.496046770283e-07 -1.213242913965e-10 0.000000000000e+00
9.900000000000e+02 0.000000000000e+00 3.500000000000e+00 1.496214502784e-07 -1.102845238121e-10 0.000000000000e+00
9.890000000000e+02 0.000000000000e+00 4.500000000000e+00 1.749033552588e-08 -1.315303496027e-10 0.000000000000e+00
9.900000000000e+02 0.000000000000e+00 4.500000000000e+00 1.749230298547e-08 -1.195619804708e-10 0.000000000000e+00
9.890000000000e+02 0.000000000000e+00 5.500000000000e+00 2.183817093810e-08 -1.339710212288e-10 0.000000000000e+00
9.900000000000e+02 0.000000000000e+00 5.500000000000e+00 2.184066564145e-08 -1.217808316169e-10 0.000000000000e+00
9.890000000000e+02 0.000000000000e+00 6.500000000000e+00 5.862827666038e-07 -1.721831538232e-10 0.000000000000e+00
9.900000000000e+02 0.000000000000e+00 6.500000000000e+00 5.863505069471e-07 -1.565213811333e-10 0.000000000000e+00
9.890000000000e+02 0.000000000000e+00 7.500000000000e+00 3.302523303848e-07 -2.298096010563e-10 0.000000000000e+00
9.900000000000e+02 0.000000000000e+00 7.500000000000e+00 3.302905164364e-07 -2.089103526955e-10 0.000000000000e+00
9.890000000000e+02 0.000000000000e+00 8.500000000000e+00 1.398148673527e-09 -2.506932752985e-10 0.000000000000e+00
9.900000000000e+02 0.000000000000e+00 8.500000000000e+00 1.398317776170e-09 -2.278981346022e-10 0.000000000000e+00
9.890000000000e+02 0.000000000000e+00 9.500000000000e+00 4.731418359908e-08 -2.549546661064e-10 0.000000000000e+00
9.900000000000e+02 0.000000000000e+00 9.500000000000e+00 4.732180798431e-08 -2.317782814559e-10 0.000000000000e+00
9.890000000000e+02 0.000000000000e+00 1.050000000000e+01 8.527761353716e-10 -2.592045526966e-10 0.000000000000e+00
9.900000000000e+02 0.000000000000e+00 1.050000000000e+01 8.529223562021e-10 -2.356482156993e-10 0.000000000000e+00
9.890000000000e+02 0.000000000000e+00 1.150000000000e+01 1.204504152819e-08 -2.608937423836e-10 0.000000000000e+00
9.900000000000e+02 0.000000000000e+00 1.150000000000e+01 1.204795308850e-08 -2.371888037411e-10 0.000000000000e+00
9.890000000000e+02 0.000000000000e+00 1.250000000000e+01 2.394510069611e-08 -2.657139377455e-10 0.000000000000e+00
9.900000000000e+02 0.000000000000e+00 1.250000000000e+01 2.395101801160e-08 -2.415852917511e-10 0.000000000000e+00
9.890000000000e+02 0.000000000000e+00 1.350000000000e+01 2.798368234632e-08 -2.727539914905e-10 0.000000000000e+00
9.900000000000e+02 0.000000000000e+00 1.350000000000e+01 2.799068330478e-08 -2.480069435573e-10 0.000000000000e+00
9.890000000000e+02 0.000000000000e+00 1.450000000000e+01 3.160581922541e-09 -2.770262511780e-10 0.000000000000e+00
9.900000000000e+02 0.000000000000e+00 1.450000000000e+01 3.161390511081e-09 -2.519042660096e-10 0.000000000000e+00
9.890000000000e+02 0.000000000000e+00 1.550000000000e+01 1.612185600541e-08 -2.799541169334e-10 0.000000000000e+00
9.900000000000e+02 0.000000000000e+00 1.550000000000e+01 1.612637737787e-08 -2.545769448051e-10 0.000000000000e+00
9.890000000000e+02 0.000000000000e+00 1.650000000000e+01 1.094992599983e-06 -4.518063047481e-10 0.000000000000e+00
9.900000000000e+02 0.000000000000e+00 1.650000000000e+01 1.095305090381e-06 -4.114709519781e-10 0.000000000000e+00
9.890000000000e+02 0.000000000000e+00 1.750000000000e+01 5.022054791360e-08 -6.291041565741e-10 0.000000000000e+00
9.900000000000e+02 0.000000000000e+00 1.750000000000e+01 5.023495390346e-08 -5.733458793982e-10 0.000000000000e+00
9.890000000000e+02 0.000000000000e+00 1.850000000000e+01 5.309948861287e-07 -7.224376755702e-10 0.000000000000e+00
9.900000000000e+02 0.000000000000e+00 1.850000000000e+01 5.311523842462e-07 -6.586334872016e-10 0.000000000000e+00
9.890000000000e+02 0.000000000000e+00 1.950000000000e+01 6.302656483623e-08 -8.182316866652e-10 0.000000000000e+00
9.900000000000e+02 0.000000000000e+00 1.950000000000e+01 6.304542385807e-08 -7.461799384063e-10 0.000000000000e+00
9.890000000000e+02 0.000000000000e+00 2.050000000000e+01 1.626862395037e-08 -8.315764880090e-10 0.000000000000e+00
9.900000000000e+02 0.000000000000e+00 2.050000000000e+01 1.627377673584e-08 -7.583905345509e-10 0.000000000000e+00
9.890000000000e+02 0.000000000000e+00 2.150000000000e+01 1.220715963871e-08 -8.371586164016e-10 0.000000000000e+00
9.900000000000e+02 0.000000000000e+00 2.150000000000e+01 1.221168564442e-08 -7.635186950356e-10 0.000000000000e+00
9.890000000000e+02 0.000000000000e+00 2.250000000000e+01 3.620903299332e-09 -8.408533774236e-10 0.000000000000e+00
9.900000000000e+02 0.000000000000e+00 2.250000000000e+01 3.622568052146e-09 -7.669267382762e-10 0.000000000000e+00
9.890000000000e+02 0.000000000000e+00 2.350000000000e+01 7.727709641522e-08 -8.697104793687e-10 0.000000000000e+00
9.900000000000e+02 0.000000000000e+00 2.350000000000e+01 7.732879573855e-08 -7.937498408503e-10 0.000000000000e+00
9.890000000000e+02 0.000000000000e+00 2.450000000000e+01 4.491343263598e-09 -8.994180986568e-10 0.000000000000e+00
9.900000000000e+02 0.000000000000e+00 2.450000000000e+01 4.494523512989e-09 -8.213781891161e-10 0.000000000000e+00
9.890000000000e+02 0.000000000000e+00 2.550000000000e+01 1.554978588562e-06 -1.662226886405e-09 0.000000000000e+00
9.900000000000e+02 0.000000000000e+00 2.550000000000e+01 1.556415672200e-06 -1.537387276509e-09 0.000000000000e+00
9.890000000000e+02 0.000000000000e+00 2.650000000000e+01 2.303487650982e-10 -2.425380476802e-09 0.000000000000e+00
9.900000000000e+02 0.000000000000e+00 2.650000000000e+01 2.315680713257e-10 -2.253978602795e-09 0.000000000000e+00
9.890000000000e+02 0.000000000000e+00 2.750000000000e+01 6.605633900263e-09 -2.506383533959e-09 0.000000000000e+00
9.900000000000e+02 0.000000000000e+00 2.750000000000e+01 6.766810892878e-09 -2.339122067310e-09 0.000000000000e+00
9.890000000000e+02 0.000000000000e+00 2.850000000000e+01 1.296394370975e-07 -4.138074972960e-09 0.000000000000e+00
9.900000000000e+02 0.000000000000e+00 2.850000000000e+01 1.328847592398e-07 -4.054445554368e-09 0.000000000000e+00
9.890000000000e+02 0.000000000000e+00 2.950000000000e+01 3.277466827624e-09 -5.730322176131e-09 0.000000000000e+00
9.900000000000e+02 0.000000000000e+00 2.950000000000e+01 3.359572210791e-09 -5.728308211332e-09 0.000000000000e+00
