VARIABLES = "X","Y","Z",VELOCITY1_X,VELOCITY1_Y,VELOCITY1_Z
ZONE T="0.000000000000e+00s", 
0.000000000000e+00 0.000000000000e+00 5.000000000000e-01 0.000000000000e+00 0.000000000000e+00 0.000000000000e+00
0.000000000000e+00 0.000000000000e+00 1.500000000000e+00 0.000000000000e+00 0.000000000000e+00 0.000000000000e+00
0.000000000000e+00 0.000000000000e+00 2.500000000000e+00 0.000000000000e+00 0.000000000000e+00 0.000000000000e+00
0.000000000000e+00 0.000000000000e+00 3.500000000000e+00 0.000000000000e+00 0.000000000000e+00 0.000000000000e+00
0.000000000000e+00 0.000000000000e+00 4.500000000000e+00 0.000000000000e+00 0.000000000000e+00 0.000000000000e+00
0.000000000000e+00 0.000000000000e+00 5.500000000000e+00 0.000000000000e+00 0.000000000000e+00 0.000000000000e+00
0.000000000000e+00 0.000000000000e+00 6.500000000000e+00 0.000000000000e+00 0.000000000000e+00 0.000000000000e+00
0.000000000000e+00 0.000000000000e+00 7.500000000000e+00 0.000000000000e+00 0.000000000000e+00 0.000000000000e+00
0.000000000000e+00 0.000000000000e+00 8.500000000000e+00 0.000000000000e+00 0.000000000000e+00 0.000000000000e+00
0.000000000000e+00 0.000000000000e+00 9.500000000000e+00 0.000000000000e+00 0.000000000000e+00 0.000000000000e+00
0.000000000000e+00 0.000000000000e+00 1.050000000000e+01 0.000000000000e+00 0.000000000000e+00 0.000000000000e+00
0.000000000000e+00 0.000000000000e+00 1.150000000000e+01 0.000000000000e+00 0.000000000000e+00 0.000000000000e+00
0.000000000000e+00 0.000000000000e+00 1.250000000000e+01 0.000000000000e+00 0.000000000000e+00 0.000000000000e+00
0.000000000000e+00 0.000000000000e+00 1.350000000000e+01 0.000000000000e+00 0.000000000000e+00 0.000000000000e+00
0.000000000000e+00 0.000000000000e+00 1.450000000000e+01 0.000000000000e+00 0.000000000000e+00 0.000000000000e+00
0.000000000000e+00 0.000000000000e+00 1.550000000000e+01 0.000000000000e+00 0.000000000000e+00 0.000000000000e+00
0.000000000000e+00 0.000000000000e+00 1.650000000000e+01 0.000000000000e+00 0.000000000000e+00 0.000000000000e+00
0.000000000000e+00 0.000000000000e+00 1.750000000000e+01 0.000000000000e+00 0.000000000000e+00 0.000000000000e+00
0.000000000000e+00 0.000000000000e+00 1.850000000000e+01 0.000000000000e+00 0.000000000000e+00 0.000000000000e+00
0.000000000000e+00 0.000000000000e+00 1.950000000000e+01 0.000000000000e+00 0.000000000000e+00 0.000000000000e+00
0.000000000000e+00 0.000000000000e+00 2.050000000000e+01 0.000000000000e+00 0.000000000000e+00 0.000000000000e+00
0.000000000000e+00 0.000000000000e+00 2.150000000000e+01 0.000000000000e+00 0.000000000000e+00 0.000000000000e+00
0.000000000000e+00 0.000000000000e+00 2.250000000000e+01 0.000000000000e+00 0.000000000000e+00 0.000000000000e+00
0.000000000000e+00 0.000000000000e+00 2.350000000000e+01 0.000000000000e+00 0.000000000000e+00 0.000000000000e+00
0.000000000000e+00 0.000000000000e+00 2.450000000000e+01 0.000000000000e+00 0.000000000000e+00 0.000000000000e+00
0.000000000000e+00 0.000000000000e+00 2.550000000000e+01 0.000000000000e+00 0.000000000000e+00 0.000000000000e+00
0.000000000000e+00 0.000000000000e+00 2.650000000000e+01 0.000000000000e+00 0.000000000000e+00 0.000000000000e+00
0.000000000000e+00 0.000000000000e+00 2.750000000000e+01 0.000000000000e+00 0.000000000000e+00 0.000000000000e+00
0.000000000000e+00 0.000000000000e+00 2.850000000000e+01 0.000000000000e+00 0.000000000000e+00 0.000000000000e+00
0.000000000000e+00 0.000000000000e+00 2.950000000000e+01 0.000000000000e+00 0.000000000000e+00 0.000000000000e+00
VARIABLES = "X","Y","Z",VELOCITY1_X,VELOCITY1_Y,VELOCITY1_Z
ZONE T="1.797693134862e+308s", 
0.000000000000e+00 0.000000000000e+00 5.000000000000e-01 1.318325696272e-11 -1.318326118915e-11 0.000000000000e+00
0.000000000000e+00 0.000000000000e+00 1.500000000000e+00 4.340455382466e-10 -4.603999760014e-10 0.000000000000e+00
0.000000000000e+00 0.000000000000e+00 2.500000000000e+00 4.925069513701e-11 -9.438460125604e-10 0.000000000000e+00
0.000000000000e+00 0.000000000000e+00 3.500000000000e+00 8.051526839013e-11 -1.073637270391e-09 0.000000000000e+00
0.000000000000e+00 0.000000000000e+00 4.500000000000e+00 9.411180284758e-12 -1.163590489658e-09 0.000000000000e+00
0.000000000000e+00 0.000000000000e+00 5.500000000000e+00 1.174410555796e-11 -1.184751872503e-09 0.000000000000e+00
0.000000000000e+00 0.000000000000e+00 6.500000000000e+00 3.152026733823e-10 -1.511704878363e-09 0.000000000000e+00
0.000000000000e+00 0.000000000000e+00 7.500000000000e+00 1.775534416089e-10 -2.004420330208e-09 0.000000000000e+00
0.000000000000e+00 0.000000000000e+00 8.500000000000e+00 7.502857825960e-13 -2.182678041112e-09 0.000000000000e+00
0.000000000000e+00 0.000000000000e+00 9.500000000000e+00 2.502036449018e-11 -2.208447071183e-09 0.000000000000e+00
0.000000000000e+00 0.000000000000e+00 1.050000000000e+01 4.493127184064e-13 -2.233924249125e-09 0.000000000000e+00
0.000000000000e+00 0.000000000000e+00 1.150000000000e+01 6.193629126196e-12 -2.240567369398e-09 0.000000000000e+00
0.000000000000e+00 0.000000000000e+00 1.250000000000e+01 1.228943279384e-11 -2.259052525356e-09 0.000000000000e+00
0.000000000000e+00 0.000000000000e+00 1.350000000000e+01 1.434753736253e-11 -2.285694617449e-09 0.000000000000e+00
0.000000000000e+00 0.000000000000e+00 1.450000000000e+01 1.617712788437e-12 -2.301665956541e-09 0.000000000000e+00
0.000000000000e+00 0.000000000000e+00 1.550000000000e+01 8.193180599368e-12 -2.311477644330e-09 0.000000000000e+00
0.000000000000e+00 0.000000000000e+00 1.650000000000e+01 5.557054518012e-10 -2.875353911039e-09 0.000000000000e+00
0.000000000000e+00 0.000000000000e+00 1.750000000000e+01 2.548062811091e-11 -3.456731312580e-09 0.000000000000e+00
0.000000000000e+00 0.000000000000e+00 1.850000000000e+01 2.691591059185e-10 -3.751372704651e-09 0.000000000000e+00
0.000000000000e+00 0.000000000000e+00 1.950000000000e+01 3.193667676714e-11 -4.052575834785e-09 0.000000000000e+00
0.000000000000e+00 0.000000000000e+00 2.050000000000e+01 8.231137412176e-12 -4.092762234531e-09 0.000000000000e+00
0.000000000000e+00 0.000000000000e+00 2.150000000000e+01 6.148091145683e-12 -4.107142657166e-09 0.000000000000e+00
0.000000000000e+00 0.000000000000e+00 2.250000000000e+01 1.809698422431e-12 -4.115103203745e-09 0.000000000000e+00
0.000000000000e+00 0.000000000000e+00 2.350000000000e+01 3.793493755681e-11 -4.154847349701e-09 0.000000000000e+00
0.000000000000e+00 0.000000000000e+00 2.450000000000e+01 2.198383011617e-12 -4.194995526342e-09 0.000000000000e+00
0.000000000000e+00 0.000000000000e+00 2.550000000000e+01 7.496301393929e-10 -4.946783421775e-09 0.000000000000e+00
0.000000000000e+00 0.000000000000e+00 2.650000000000e+01 1.017732297819e-13 -5.696814388855e-09 0.000000000000e+00
0.000000000000e+00 0.000000000000e+00 2.750000000000e+01 1.757279372983e-12 -5.698673531640e-09 0.000000000000e+00
0.000000000000e+00 0.000000000000e+00 2.850000000000e+01 3.373161491129e-11 -5.734161061486e-09 0.000000000000e+00
0.000000000000e+00 0.000000000000e+00 2.950000000000e+01 8.521255320131e-13 -5.768757603889e-09 0.000000000000e+00
