 TITLE = "Profiles along polylines"
 VARIABLES = "DIST" "HEAD" "VELOCITY_X1" "VELOCITY_Y1" "VELOCITY_Z1" 
 ZONE T="TIME=0.000000000000e+00"
0.000000000000e+00 3.000000000000e+01 0.000000000000e+00 0.000000000000e+00 0.000000000000e+00 
1.000000000000e+00 3.000000000000e+01 0.000000000000e+00 0.000000000000e+00 0.000000000000e+00 
2.000000000000e+00 3.000000000000e+01 0.000000000000e+00 0.000000000000e+00 0.000000000000e+00 
3.000000000000e+00 3.000000000000e+01 0.000000000000e+00 0.000000000000e+00 0.000000000000e+00 
4.000000000000e+00 3.000000000000e+01 0.000000000000e+00 0.000000000000e+00 0.000000000000e+00 
5.000000000000e+00 3.000000000000e+01 0.000000000000e+00 0.000000000000e+00 0.000000000000e+00 
6.000000000000e+00 3.000000000000e+01 0.000000000000e+00 0.000000000000e+00 0.000000000000e+00 
7.000000000000e+00 3.000000000000e+01 0.000000000000e+00 0.000000000000e+00 0.000000000000e+00 
8.000000000000e+00 3.000000000000e+01 0.000000000000e+00 0.000000000000e+00 0.000000000000e+00 
9.000000000000e+00 3.000000000000e+01 0.000000000000e+00 0.000000000000e+00 0.000000000000e+00 
1.000000000000e+01 3.000000000000e+01 0.000000000000e+00 0.000000000000e+00 0.000000000000e+00 
1.100000000000e+01 3.000000000000e+01 0.000000000000e+00 0.000000000000e+00 0.000000000000e+00 
1.200000000000e+01 3.000000000000e+01 0.000000000000e+00 0.000000000000e+00 0.000000000000e+00 
1.300000000000e+01 3.000000000000e+01 0.000000000000e+00 0.000000000000e+00 0.000000000000e+00 
1.400000000000e+01 3.000000000000e+01 0.000000000000e+00 0.000000000000e+00 0.000000000000e+00 
1.500000000000e+01 3.000000000000e+01 0.000000000000e+00 0.000000000000e+00 0.000000000000e+00 
1.600000000000e+01 3.000000000000e+01 0.000000000000e+00 0.000000000000e+00 0.000000000000e+00 
1.700000000000e+01 3.000000000000e+01 0.000000000000e+00 0.000000000000e+00 0.000000000000e+00 
1.800000000000e+01 3.000000000000e+01 0.000000000000e+00 0.000000000000e+00 0.000000000000e+00 
1.900000000000e+01 3.000000000000e+01 0.000000000000e+00 0.000000000000e+00 0.000000000000e+00 
2.000000000000e+01 3.000000000000e+01 0.000000000000e+00 0.000000000000e+00 0.000000000000e+00 
2.100000000000e+01 3.000000000000e+01 0.000000000000e+00 0.000000000000e+00 0.000000000000e+00 
2.200000000000e+01 3.000000000000e+01 0.000000000000e+00 0.000000000000e+00 0.000000000000e+00 
2.300000000000e+01 3.000000000000e+01 0.000000000000e+00 0.000000000000e+00 0.000000000000e+00 
2.400000000000e+01 3.000000000000e+01 0.000000000000e+00 0.000000000000e+00 0.000000000000e+00 
2.500000000000e+01 3.000000000000e+01 0.000000000000e+00 0.000000000000e+00 0.000000000000e+00 
2.600000000000e+01 3.000000000000e+01 0.000000000000e+00 0.000000000000e+00 0.000000000000e+00 
2.700000000000e+01 3.000000000000e+01 0.000000000000e+00 0.000000000000e+00 0.000000000000e+00 
2.800000000000e+01 3.000000000000e+01 0.000000000000e+00 0.000000000000e+00 0.000000000000e+00 
2.900000000000e+01 3.000000000000e+01 0.000000000000e+00 0.000000000000e+00 0.000000000000e+00 
3.000000000000e+01 3.000000000000e+01 0.000000000000e+00 0.000000000000e+00 0.000000000000e+00 
 TITLE = "Profiles along polylines"
 VARIABLES = "DIST" "HEAD" "VELOCITY_X1" "VELOCITY_Y1" "VELOCITY_Z1" 
 ZONE T="TIME=1.797693134862e+308"
0.000000000000e+00 3.040962650738e+01 1.318417970728e-08 -1.318293266728e-11 0.000000000000e+00 
1.000000000000e+00 3.040962706007e+01 2.236321386581e-07 -2.367893060102e-10 0.000000000000e+00 
2.000000000000e+00 3.040962764632e+01 2.416692572004e-07 -7.019913018115e-10 0.000000000000e+00 
3.000000000000e+00 3.040963823456e+01 6.489188498623e-08 -1.008470003448e-09 0.000000000000e+00 
4.000000000000e+00 3.040964560227e+01 4.496912873254e-08 -1.118311485692e-09 0.000000000000e+00 
5.000000000000e+00 3.040971391146e+01 1.057893128459e-08 -1.173846963305e-09 0.000000000000e+00 
6.000000000000e+00 3.040976965295e+01 1.634506404222e-07 -1.347861378341e-09 0.000000000000e+00 
7.000000000000e+00 3.040977230357e+01 2.463390054745e-07 -1.757570028878e-09 0.000000000000e+00 
8.000000000000e+00 3.040977854285e+01 8.913590870420e-08 -2.092954873197e-09 0.000000000000e+00 
9.000000000000e+00 3.041138642860e+01 1.288601979025e-08 -2.194954696075e-09 0.000000000000e+00 
1.000000000000e+01 3.041143520123e+01 1.273564949081e-08 -2.220574178877e-09 0.000000000000e+00 
1.100000000000e+01 3.041418218144e+01 3.321876578759e-09 -2.236629879034e-09 0.000000000000e+00 
1.200000000000e+01 3.041438206700e+01 9.242840593402e-09 -2.249196128815e-09 0.000000000000e+00 
1.300000000000e+01 3.041448363328e+01 1.332072600146e-08 -2.271761654446e-09 0.000000000000e+00 
1.400000000000e+01 3.041457165425e+01 7.984086587480e-09 -2.293067985367e-09 0.000000000000e+00 
1.500000000000e+01 3.041535775462e+01 4.906169208863e-09 -2.305959886813e-09 0.000000000000e+00 
1.600000000000e+01 3.041551364038e+01 2.819855114090e-07 -2.592930767683e-09 0.000000000000e+00 
1.700000000000e+01 3.041551649981e+01 2.906313768064e-07 -3.165639458678e-09 0.000000000000e+00 
1.800000000000e+01 3.041559146346e+01 1.473439773808e-07 -3.603665229851e-09 0.000000000000e+00 
1.900000000000e+01 3.041559916571e+01 1.505737012543e-07 -3.901632165951e-09 0.000000000000e+00 
2.000000000000e+01 3.041566928330e+01 2.008941843177e-08 -4.072311287369e-09 0.000000000000e+00 
2.100000000000e+01 3.041594403801e+01 7.191279061209e-09 -4.099597146807e-09 0.000000000000e+00 
2.200000000000e+01 3.041631320943e+01 3.979659250759e-09 -4.110770585516e-09 0.000000000000e+00 
2.300000000000e+01 3.041756976352e+01 1.987549934901e-08 -4.134632553319e-09 0.000000000000e+00 
2.400000000000e+01 3.041763029183e+01 2.006988902424e-08 -4.174586061216e-09 0.000000000000e+00 
2.500000000000e+01 3.041868476941e+01 3.759747406309e-07 -4.570754351852e-09 0.000000000000e+00 
2.600000000000e+01 3.041868841660e+01 3.749261923432e-07 -5.321823950007e-09 0.000000000000e+00 
2.700000000000e+01 3.044962208377e+01 9.296694042925e-10 -5.697727144709e-09 0.000000000000e+00 
2.800000000000e+01 3.045141440381e+01 1.774716717681e-08 -5.716409981469e-09 0.000000000000e+00 
2.900000000000e+01 3.045150835759e+01 1.729458258708e-08 -5.751460309306e-09 0.000000000000e+00 
3.000000000000e+01 3.045524948317e+01 8.523698295916e-10 -5.768757774213e-09 0.000000000000e+00 
