 TITLE = "Profiles along polylines"
 VARIABLES = "DIST" "HEAD" "VELOCITY_X1" "VELOCITY_Y1" "VELOCITY_Z1" 
 ZONE T="TIME=0.000000000000e+00"
0.000000000000e+00 3.000000000000e+01 0.000000000000e+00 0.000000000000e+00 0.000000000000e+00 
1.000000000000e+00 3.000000000000e+01 0.000000000000e+00 0.000000000000e+00 0.000000000000e+00 
2.000000000000e+00 3.000000000000e+01 0.000000000000e+00 0.000000000000e+00 0.000000000000e+00 
3.000000000000e+00 3.000000000000e+01 0.000000000000e+00 0.000000000000e+00 0.000000000000e+00 
4.000000000000e+00 3.000000000000e+01 0.000000000000e+00 0.000000000000e+00 0.000000000000e+00 
5.000000000000e+00 3.000000000000e+01 0.000000000000e+00 0.000000000000e+00 0.000000000000e+00 
6.000000000000e+00 3.000000000000e+01 0.000000000000e+00 0.000000000000e+00 0.000000000000e+00 
7.000000000000e+00 3.000000000000e+01 0.000000000000e+00 0.000000000000e+00 0.000000000000e+00 
8.000000000000e+00 3.000000000000e+01 0.000000000000e+00 0.000000000000e+00 0.000000000000e+00 
9.000000000000e+00 3.000000000000e+01 0.000000000000e+00 0.000000000000e+00 0.000000000000e+00 
1.000000000000e+01 3.000000000000e+01 0.000000000000e+00 0.000000000000e+00 0.000000000000e+00 
1.100000000000e+01 3.000000000000e+01 0.000000000000e+00 0.000000000000e+00 0.000000000000e+00 
1.200000000000e+01 3.000000000000e+01 0.000000000000e+00 0.000000000000e+00 0.000000000000e+00 
1.300000000000e+01 3.000000000000e+01 0.000000000000e+00 0.000000000000e+00 0.000000000000e+00 
1.400000000000e+01 3.000000000000e+01 0.000000000000e+00 0.000000000000e+00 0.000000000000e+00 
1.500000000000e+01 3.000000000000e+01 0.000000000000e+00 0.000000000000e+00 0.000000000000e+00 
1.600000000000e+01 3.000000000000e+01 0.000000000000e+00 0.000000000000e+00 0.000000000000e+00 
1.700000000000e+01 3.000000000000e+01 0.000000000000e+00 0.000000000000e+00 0.000000000000e+00 
1.800000000000e+01 3.000000000000e+01 0.000000000000e+00 0.000000000000e+00 0.000000000000e+00 
1.900000000000e+01 3.000000000000e+01 0.000000000000e+00 0.000000000000e+00 0.000000000000e+00 
2.000000000000e+01 3.000000000000e+01 0.000000000000e+00 0.000000000000e+00 0.000000000000e+00 
2.100000000000e+01 3.000000000000e+01 0.000000000000e+00 0.000000000000e+00 0.000000000000e+00 
2.200000000000e+01 3.000000000000e+01 0.000000000000e+00 0.000000000000e+00 0.000000000000e+00 
2.300000000000e+01 3.000000000000e+01 0.000000000000e+00 0.000000000000e+00 0.000000000000e+00 
2.400000000000e+01 3.000000000000e+01 0.000000000000e+00 0.000000000000e+00 0.000000000000e+00 
2.500000000000e+01 3.000000000000e+01 0.000000000000e+00 0.000000000000e+00 0.000000000000e+00 
2.600000000000e+01 3.000000000000e+01 0.000000000000e+00 0.000000000000e+00 0.000000000000e+00 
2.700000000000e+01 3.000000000000e+01 0.000000000000e+00 0.000000000000e+00 0.000000000000e+00 
2.800000000000e+01 3.000000000000e+01 0.000000000000e+00 0.000000000000e+00 0.000000000000e+00 
2.900000000000e+01 3.000000000000e+01 0.000000000000e+00 0.000000000000e+00 0.000000000000e+00 
3.000000000000e+01 3.000000000000e+01 0.000000000000e+00 0.000000000000e+00 0.000000000000e+00 
 TITLE = "Profiles along polylines"
 VARIABLES = "DIST" "HEAD" "VELOCITY_X1" "VELOCITY_Y1" "VELOCITY_Z1" 
 ZONE T="TIME=1.797693134862e+308"
0.000000000000e+00 3.000000000000e+01 2.450634805068e-08 -1.154948129229e-20 0.000000000000e+00 
1.000000000000e+00 3.000000000000e+01 4.156828749196e-07 -1.740471033188e-19 0.000000000000e+00 
2.000000000000e+00 3.000000000000e+01 4.492125812324e-07 -5.315420189433e-19 0.000000000000e+00 
3.000000000000e+00 3.000000000000e+01 1.206333986446e-07 8.939309948940e-20 0.000000000000e+00 
4.000000000000e+00 3.000000000000e+01 8.360343634166e-08 -3.199074033231e-20 0.000000000000e+00 
5.000000000000e+00 3.000000000000e+01 1.968124286200e-08 2.767020590191e-20 0.000000000000e+00 
6.000000000000e+00 3.000000000000e+01 3.042586682239e-07 -5.665552990696e-19 0.000000000000e+00 
7.000000000000e+00 3.000000000000e+01 4.585654018799e-07 -7.334372022011e-19 0.000000000000e+00 
8.000000000000e+00 3.000000000000e+01 1.659390822088e-07 -1.638781060669e-19 0.000000000000e+00 
9.000000000000e+00 3.000000000000e+01 2.438666961782e-08 -1.525024334349e-20 0.000000000000e+00 
1.000000000000e+01 3.000000000000e+01 2.411407564317e-08 -2.920246466127e-20 0.000000000000e+00 
1.100000000000e+01 3.000000000000e+01 6.466664741910e-09 2.250784548586e-21 0.000000000000e+00 
1.200000000000e+01 3.000000000000e+01 1.802889762718e-08 -6.970149382179e-21 0.000000000000e+00 
1.300000000000e+01 3.000000000000e+01 2.600974120541e-08 -2.970806512869e-20 0.000000000000e+00 
1.400000000000e+01 3.000000000000e+01 1.560356932118e-08 -2.290755264800e-20 0.000000000000e+00 
1.500000000000e+01 3.000000000000e+01 9.665955506947e-09 -2.042425002232e-21 0.000000000000e+00 
1.600000000000e+01 3.000000000000e+01 5.564485189592e-07 1.516133553071e-18 0.000000000000e+00 
1.700000000000e+01 3.000000000000e+01 5.735316662255e-07 -1.482155042468e-18 0.000000000000e+00 
1.800000000000e+01 3.000000000000e+01 2.911094614073e-07 -2.971608339870e-19 0.000000000000e+00 
1.900000000000e+01 3.000000000000e+01 2.975284370077e-07 -4.096675228856e-19 0.000000000000e+00 
2.000000000000e+01 3.000000000000e+01 3.974443752296e-08 -8.407896925289e-21 0.000000000000e+00 
2.100000000000e+01 3.000000000000e+01 1.429546003951e-08 1.723050254705e-20 0.000000000000e+00 
2.200000000000e+01 3.000000000000e+01 7.962159303976e-09 7.950469883567e-22 0.000000000000e+00 
2.300000000000e+01 3.000000000000e+01 4.063529760383e-08 3.896265032581e-20 0.000000000000e+00 
2.400000000000e+01 3.000000000000e+01 4.107629740298e-08 4.160487129064e-20 0.000000000000e+00 
2.500000000000e+01 3.000000000000e+01 7.841301255768e-07 -7.910146745195e-19 0.000000000000e+00 
2.600000000000e+01 3.000000000000e+01 7.820327493177e-07 -7.933066290245e-19 0.000000000000e+00 
2.700000000000e+01 3.000000000000e+01 4.437829836298e-09 2.679553043550e-21 0.000000000000e+00 
2.800000000000e+01 3.000000000000e+01 8.813276723938e-08 8.983126522363e-21 0.000000000000e+00 
2.900000000000e+01 3.000000000000e+01 8.692073940494e-08 6.332972317888e-21 0.000000000000e+00 
3.000000000000e+01 3.000000000000e+01 9.279485816884e-09 -1.836857947751e-21 0.000000000000e+00 
