VARIABLES = "X","Y","Z",VELOCITY1_X,VELOCITY1_Y,VELOCITY1_Z
ZONE T="0.000000000000e+00s", 
8.990000000000e+02 0.000000000000e+00 5.000000000000e-01 0.000000000000e+00 0.000000000000e+00 0.000000000000e+00
9.000000000000e+02 0.000000000000e+00 5.000000000000e-01 0.000000000000e+00 0.000000000000e+00 0.000000000000e+00
8.990000000000e+02 0.000000000000e+00 1.500000000000e+00 0.000000000000e+00 0.000000000000e+00 0.000000000000e+00
9.000000000000e+02 0.000000000000e+00 1.500000000000e+00 0.000000000000e+00 0.000000000000e+00 0.000000000000e+00
8.990000000000e+02 0.000000000000e+00 2.500000000000e+00 0.000000000000e+00 0.000000000000e+00 0.000000000000e+00
9.000000000000e+02 0.000000000000e+00 2.500000000000e+00 0.000000000000e+00 0.000000000000e+00 0.000000000000e+00
8.990000000000e+02 0.000000000000e+00 3.500000000000e+00 0.000000000000e+00 0.000000000000e+00 0.000000000000e+00
9.000000000000e+02 0.000000000000e+00 3.500000000000e+00 0.000000000000e+00 0.000000000000e+00 0.000000000000e+00
8.990000000000e+02 0.000000000000e+00 4.500000000000e+00 0.000000000000e+00 0.000000000000e+00 0.000000000000e+00
9.000000000000e+02 0.000000000000e+00 4.500000000000e+00 0.000000000000e+00 0.000000000000e+00 0.000000000000e+00
8.990000000000e+02 0.000000000000e+00 5.500000000000e+00 0.000000000000e+00 0.000000000000e+00 0.000000000000e+00
9.000000000000e+02 0.000000000000e+00 5.500000000000e+00 0.000000000000e+00 0.000000000000e+00 0.000000000000e+00
8.990000000000e+02 0.000000000000e+00 6.500000000000e+00 0.000000000000e+00 0.000000000000e+00 0.000000000000e+00
9.000000000000e+02 0.000000000000e+00 6.500000000000e+00 0.000000000000e+00 0.000000000000e+00 0.000000000000e+00
8.990000000000e+02 0.000000000000e+00 7.500000000000e+00 0.000000000000e+00 0.000000000000e+00 0.000000000000e+00
9.000000000000e+02 0.000000000000e+00 7.500000000000e+00 0.000000000000e+00 0.000000000000e+00 0.000000000000e+00
8.990000000000e+02 0.000000000000e+00 8.500000000000e+00 0.000000000000e+00 0.000000000000e+00 0.000000000000e+00
9.000000000000e+02 0.000000000000e+00 8.500000000000e+00 0.000000000000e+00 0.000000000000e+00 0.000000000000e+00
8.990000000000e+02 0.000000000000e+00 9.500000000000e+00 0.000000000000e+00 0.000000000000e+00 0.000000000000e+00
9.000000000000e+02 0.000000000000e+00 9.500000000000e+00 0.000000000000e+00 0.000000000000e+00 0.000000000000e+00
8.990000000000e+02 0.000000000000e+00 1.050000000000e+01 0.000000000000e+00 0.000000000000e+00 0.000000000000e+00
9.000000000000e+02 0.000000000000e+00 1.050000000000e+01 0.000000000000e+00 0.000000000000e+00 0.000000000000e+00
8.990000000000e+02 0.000000000000e+00 1.150000000000e+01 0.000000000000e+00 0.000000000000e+00 0.000000000000e+00
9.000000000000e+02 0.000000000000e+00 1.150000000000e+01 0.000000000000e+00 0.000000000000e+00 0.000000000000e+00
8.990000000000e+02 0.000000000000e+00 1.250000000000e+01 0.000000000000e+00 0.000000000000e+00 0.000000000000e+00
9.000000000000e+02 0.000000000000e+00 1.250000000000e+01 0.000000000000e+00 0.000000000000e+00 0.000000000000e+00
8.990000000000e+02 0.000000000000e+00 1.350000000000e+01 0.000000000000e+00 0.000000000000e+00 0.000000000000e+00
9.000000000000e+02 0.000000000000e+00 1.350000000000e+01 0.000000000000e+00 0.000000000000e+00 0.000000000000e+00
8.990000000000e+02 0.000000000000e+00 1.450000000000e+01 0.000000000000e+00 0.000000000000e+00 0.000000000000e+00
9.000000000000e+02 0.000000000000e+00 1.450000000000e+01 0.000000000000e+00 0.000000000000e+00 0.000000000000e+00
8.990000000000e+02 0.000000000000e+00 1.550000000000e+01 0.000000000000e+00 0.000000000000e+00 0.000000000000e+00
9.000000000000e+02 0.000000000000e+00 1.550000000000e+01 0.000000000000e+00 0.000000000000e+00 0.000000000000e+00
8.990000000000e+02 0.000000000000e+00 1.650000000000e+01 0.000000000000e+00 0.000000000000e+00 0.000000000000e+00
9.000000000000e+02 0.000000000000e+00 1.650000000000e+01 0.000000000000e+00 0.000000000000e+00 0.000000000000e+00
8.990000000000e+02 0.000000000000e+00 1.750000000000e+01 0.000000000000e+00 0.000000000000e+00 0.000000000000e+00
9.000000000000e+02 0.000000000000e+00 1.750000000000e+01 0.000000000000e+00 0.000000000000e+00 0.000000000000e+00
8.990000000000e+02 0.000000000000e+00 1.850000000000e+01 0.000000000000e+00 0.000000000000e+00 0.000000000000e+00
9.000000000000e+02 0.000000000000e+00 1.850000000000e+01 0.000000000000e+00 0.000000000000e+00 0.000000000000e+00
8.990000000000e+02 0.000000000000e+00 1.950000000000e+01 0.000000000000e+00 0.000000000000e+00 0.000000000000e+00
9.000000000000e+02 0.000000000000e+00 1.950000000000e+01 0.000000000000e+00 0.000000000000e+00 0.000000000000e+00
8.990000000000e+02 0.000000000000e+00 2.050000000000e+01 0.000000000000e+00 0.000000000000e+00 0.000000000000e+00
9.000000000000e+02 0.000000000000e+00 2.050000000000e+01 0.000000000000e+00 0.000000000000e+00 0.000000000000e+00
8.990000000000e+02 0.000000000000e+00 2.150000000000e+01 0.000000000000e+00 0.000000000000e+00 0.000000000000e+00
9.000000000000e+02 0.000000000000e+00 2.150000000000e+01 0.000000000000e+00 0.000000000000e+00 0.000000000000e+00
8.990000000000e+02 0.000000000000e+00 2.250000000000e+01 0.000000000000e+00 0.000000000000e+00 0.000000000000e+00
9.000000000000e+02 0.000000000000e+00 2.250000000000e+01 0.000000000000e+00 0.000000000000e+00 0.000000000000e+00
8.990000000000e+02 0.000000000000e+00 2.350000000000e+01 0.000000000000e+00 0.000000000000e+00 0.000000000000e+00
9.000000000000e+02 0.000000000000e+00 2.350000000000e+01 0.000000000000e+00 0.000000000000e+00 0.000000000000e+00
8.990000000000e+02 0.000000000000e+00 2.450000000000e+01 0.000000000000e+00 0.000000000000e+00 0.000000000000e+00
9.000000000000e+02 0.000000000000e+00 2.450000000000e+01 0.000000000000e+00 0.000000000000e+00 0.000000000000e+00
8.990000000000e+02 0.000000000000e+00 2.550000000000e+01 0.000000000000e+00 0.000000000000e+00 0.000000000000e+00
9.000000000000e+02 0.000000000000e+00 2.550000000000e+01 0.000000000000e+00 0.000000000000e+00 0.000000000000e+00
8.990000000000e+02 0.000000000000e+00 2.650000000000e+01 0.000000000000e+00 0.000000000000e+00 0.000000000000e+00
9.000000000000e+02 0.000000000000e+00 2.650000000000e+01 0.000000000000e+00 0.000000000000e+00 0.000000000000e+00
8.990000000000e+02 0.000000000000e+00 2.750000000000e+01 0.000000000000e+00 0.000000000000e+00 0.000000000000e+00
9.000000000000e+02 0.000000000000e+00 2.750000000000e+01 0.000000000000e+00 0.000000000000e+00 0.000000000000e+00
8.990000000000e+02 0.000000000000e+00 2.850000000000e+01 0.000000000000e+00 0.000000000000e+00 0.000000000000e+00
9.000000000000e+02 0.000000000000e+00 2.850000000000e+01 0.000000000000e+00 0.000000000000e+00 0.000000000000e+00
8.990000000000e+02 0.000000000000e+00 2.950000000000e+01 0.000000000000e+00 0.000000000000e+00 0.000000000000e+00
9.000000000000e+02 0.000000000000e+00 2.950000000000e+01 0.000000000000e+00 0.000000000000e+00 0.000000000000e+00
VARIABLES = "X","Y","Z",VELOCITY1_X,VELOCITY1_Y,VELOCITY1_Z
ZONE T="1.797693134862e+308s", 
8.990000000000e+02 0.000000000000e+00 5.000000000000e-01 2.333971655655e-08 -1.002638713333e-11 0.000000000000e+00
9.000000000000e+02 0.000000000000e+00 5.000000000000e-01 2.335967742105e-08 -9.974667125981e-12 0.000000000000e+00
8.990000000000e+02 0.000000000000e+00 1.500000000000e+00 7.684459032070e-07 -3.501808048201e-10 0.000000000000e+00
9.000000000000e+02 0.000000000000e+00 1.500000000000e+00 7.691031255160e-07 -3.483679595394e-10 0.000000000000e+00
8.990000000000e+02 0.000000000000e+00 2.500000000000e+00 8.720208647794e-08 -7.177735129042e-10 0.000000000000e+00
9.000000000000e+02 0.000000000000e+00 2.500000000000e+00 8.727667420319e-08 -7.140692926772e-10 0.000000000000e+00
8.990000000000e+02 0.000000000000e+00 3.500000000000e+00 1.425597020747e-07 -8.165523374278e-10 0.000000000000e+00
9.000000000000e+02 0.000000000000e+00 3.500000000000e+00 1.426817245120e-07 -8.123408651920e-10 0.000000000000e+00
8.990000000000e+02 0.000000000000e+00 4.500000000000e+00 1.666527889677e-08 -8.850401233514e-10 0.000000000000e+00
9.000000000000e+02 0.000000000000e+00 4.500000000000e+00 1.667955735807e-08 -8.804753144952e-10 0.000000000000e+00
8.990000000000e+02 0.000000000000e+00 5.500000000000e+00 2.079965535997e-08 -9.012290202033e-10 0.000000000000e+00
9.000000000000e+02 0.000000000000e+00 5.500000000000e+00 2.081755595657e-08 -8.965822268407e-10 0.000000000000e+00
8.990000000000e+02 0.000000000000e+00 6.500000000000e+00 5.582351330067e-07 -1.152329434599e-09 0.000000000000e+00
9.000000000000e+02 0.000000000000e+00 6.500000000000e+00 5.587171513822e-07 -1.146429499672e-09 0.000000000000e+00
8.990000000000e+02 0.000000000000e+00 7.500000000000e+00 3.144472611676e-07 -1.530828646200e-09 0.000000000000e+00
9.000000000000e+02 0.000000000000e+00 7.500000000000e+00 3.147188320772e-07 -1.523042625246e-09 0.000000000000e+00
8.990000000000e+02 0.000000000000e+00 8.500000000000e+00 1.329698740476e-09 -1.667846283085e-09 0.000000000000e+00
9.000000000000e+02 0.000000000000e+00 8.500000000000e+00 1.330861369729e-09 -1.659377625494e-09 0.000000000000e+00
8.990000000000e+02 0.000000000000e+00 9.500000000000e+00 4.460506188409e-08 -1.689861086709e-09 0.000000000000e+00
9.000000000000e+02 0.000000000000e+00 9.500000000000e+00 4.464770202119e-08 -1.681321567445e-09 0.000000000000e+00
8.990000000000e+02 0.000000000000e+00 1.050000000000e+01 8.022021148084e-10 -1.711684577766e-09 0.000000000000e+00
9.000000000000e+02 0.000000000000e+00 1.050000000000e+01 8.029849765971e-10 -1.703075913702e-09 0.000000000000e+00
8.990000000000e+02 0.000000000000e+00 1.150000000000e+01 1.116334901444e-08 -1.718347120771e-09 0.000000000000e+00
9.000000000000e+02 0.000000000000e+00 1.150000000000e+01 1.117577842727e-08 -1.709732811721e-09 0.000000000000e+00
8.990000000000e+02 0.000000000000e+00 1.250000000000e+01 2.216725273641e-08 -1.737081325318e-09 0.000000000000e+00
9.000000000000e+02 0.000000000000e+00 1.250000000000e+01 2.219216536970e-08 -1.728453902816e-09 0.000000000000e+00
8.990000000000e+02 0.000000000000e+00 1.350000000000e+01 2.589016484514e-08 -1.764224424452e-09 0.000000000000e+00
9.000000000000e+02 0.000000000000e+00 1.350000000000e+01 2.591940419194e-08 -1.755580123304e-09 0.000000000000e+00
8.990000000000e+02 0.000000000000e+00 1.450000000000e+01 2.921060961782e-09 -1.780567615768e-09 0.000000000000e+00
9.000000000000e+02 0.000000000000e+00 1.450000000000e+01 2.924386687033e-09 -1.771914008504e-09 0.000000000000e+00
8.990000000000e+02 0.000000000000e+00 1.550000000000e+01 1.483293952906e-08 -1.791017784908e-09 0.000000000000e+00
9.000000000000e+02 0.000000000000e+00 1.550000000000e+01 1.485040854806e-08 -1.782364001335e-09 0.000000000000e+00
8.990000000000e+02 0.000000000000e+00 1.650000000000e+01 1.006561837719e-06 -2.396286986700e-09 0.000000000000e+00
9.000000000000e+02 0.000000000000e+00 1.650000000000e+01 1.007754894995e-06 -2.387682785226e-09 0.000000000000e+00
8.990000000000e+02 0.000000000000e+00 1.750000000000e+01 4.615880718471e-08 -3.020181974413e-09 0.000000000000e+00
9.000000000000e+02 0.000000000000e+00 1.750000000000e+01 4.621354365691e-08 -3.011642322258e-09 0.000000000000e+00
8.990000000000e+02 0.000000000000e+00 1.850000000000e+01 4.876434666917e-07 -3.337537418799e-09 0.000000000000e+00
9.000000000000e+02 0.000000000000e+00 1.850000000000e+01 4.882233953072e-07 -3.329055042388e-09 0.000000000000e+00
8.990000000000e+02 0.000000000000e+00 1.950000000000e+01 5.786918591294e-08 -3.661952479105e-09 0.000000000000e+00
9.000000000000e+02 0.000000000000e+00 1.950000000000e+01 5.793804938501e-08 -3.653526334168e-09 0.000000000000e+00
8.990000000000e+02 0.000000000000e+00 2.050000000000e+01 1.491757970401e-08 -3.705363517680e-09 0.000000000000e+00
9.000000000000e+02 0.000000000000e+00 2.050000000000e+01 1.493539930637e-08 -3.696949396850e-09 0.000000000000e+00
8.990000000000e+02 0.000000000000e+00 2.150000000000e+01 1.114789657029e-08 -3.721082694674e-09 0.000000000000e+00
9.000000000000e+02 0.000000000000e+00 2.150000000000e+01 1.116136846831e-08 -3.712677875598e-09 0.000000000000e+00
8.990000000000e+02 0.000000000000e+00 2.250000000000e+01 3.284696440550e-09 -3.729914694251e-09 0.000000000000e+00
9.000000000000e+02 0.000000000000e+00 2.250000000000e+01 3.288740960944e-09 -3.721518680703e-09 0.000000000000e+00
8.990000000000e+02 0.000000000000e+00 2.350000000000e+01 6.900514683949e-08 -3.776282926705e-09 0.000000000000e+00
9.000000000000e+02 0.000000000000e+00 2.350000000000e+01 6.909386787688e-08 -3.767995347178e-09 0.000000000000e+00
8.990000000000e+02 0.000000000000e+00 2.450000000000e+01 4.000598026792e-09 -3.823211015715e-09 0.000000000000e+00
9.000000000000e+02 0.000000000000e+00 2.450000000000e+01 4.005774178642e-09 -3.815036245479e-09 0.000000000000e+00
8.990000000000e+02 0.000000000000e+00 2.550000000000e+01 1.366533550277e-06 -4.737015008891e-09 0.000000000000e+00
9.000000000000e+02 0.000000000000e+00 2.550000000000e+01 1.368361380842e-06 -4.731949713520e-09 0.000000000000e+00
8.990000000000e+02 0.000000000000e+00 2.650000000000e+01 1.857644816246e-10 -5.648327059978e-09 0.000000000000e+00
9.000000000000e+02 0.000000000000e+00 2.650000000000e+01 1.860229169641e-10 -5.646376410507e-09 0.000000000000e+00
8.990000000000e+02 0.000000000000e+00 2.750000000000e+01 3.237095848537e-09 -5.651380613922e-09 0.000000000000e+00
9.000000000000e+02 0.000000000000e+00 2.750000000000e+01 3.242959399231e-09 -5.649477552788e-09 0.000000000000e+00
8.990000000000e+02 0.000000000000e+00 2.850000000000e+01 6.216993459523e-08 -5.710528312340e-09 0.000000000000e+00
9.000000000000e+02 0.000000000000e+00 2.850000000000e+01 6.228400315576e-08 -5.709576905275e-09 0.000000000000e+00
8.990000000000e+02 0.000000000000e+00 2.950000000000e+01 1.570765037914e-09 -5.768188875536e-09 0.000000000000e+00
9.000000000000e+02 0.000000000000e+00 2.950000000000e+01 1.573648133636e-09 -5.768165964084e-09 0.000000000000e+00
