 TITLE = "Profiles along polylines"
 VARIABLES = "DIST" "HEAD" "VELOCITY_X1" "VELOCITY_Y1" "VELOCITY_Z1" 
 ZONE T="TIME=0.000000000000e+00"
0.000000000000e+00 3.000000000000e+01 0.000000000000e+00 0.000000000000e+00 0.000000000000e+00 
1.000000000000e+00 3.000000000000e+01 0.000000000000e+00 0.000000000000e+00 0.000000000000e+00 
2.000000000000e+00 3.000000000000e+01 0.000000000000e+00 0.000000000000e+00 0.000000000000e+00 
3.000000000000e+00 3.000000000000e+01 0.000000000000e+00 0.000000000000e+00 0.000000000000e+00 
4.000000000000e+00 3.000000000000e+01 0.000000000000e+00 0.000000000000e+00 0.000000000000e+00 
5.000000000000e+00 3.000000000000e+01 0.000000000000e+00 0.000000000000e+00 0.000000000000e+00 
6.000000000000e+00 3.000000000000e+01 0.000000000000e+00 0.000000000000e+00 0.000000000000e+00 
7.000000000000e+00 3.000000000000e+01 0.000000000000e+00 0.000000000000e+00 0.000000000000e+00 
8.000000000000e+00 3.000000000000e+01 0.000000000000e+00 0.000000000000e+00 0.000000000000e+00 
9.000000000000e+00 3.000000000000e+01 0.000000000000e+00 0.000000000000e+00 0.000000000000e+00 
1.000000000000e+01 3.000000000000e+01 0.000000000000e+00 0.000000000000e+00 0.000000000000e+00 
1.100000000000e+01 3.000000000000e+01 0.000000000000e+00 0.000000000000e+00 0.000000000000e+00 
1.200000000000e+01 3.000000000000e+01 0.000000000000e+00 0.000000000000e+00 0.000000000000e+00 
1.300000000000e+01 3.000000000000e+01 0.000000000000e+00 0.000000000000e+00 0.000000000000e+00 
1.400000000000e+01 3.000000000000e+01 0.000000000000e+00 0.000000000000e+00 0.000000000000e+00 
1.500000000000e+01 3.000000000000e+01 0.000000000000e+00 0.000000000000e+00 0.000000000000e+00 
1.600000000000e+01 3.000000000000e+01 0.000000000000e+00 0.000000000000e+00 0.000000000000e+00 
1.700000000000e+01 3.000000000000e+01 0.000000000000e+00 0.000000000000e+00 0.000000000000e+00 
1.800000000000e+01 3.000000000000e+01 0.000000000000e+00 0.000000000000e+00 0.000000000000e+00 
1.900000000000e+01 3.000000000000e+01 0.000000000000e+00 0.000000000000e+00 0.000000000000e+00 
2.000000000000e+01 3.000000000000e+01 0.000000000000e+00 0.000000000000e+00 0.000000000000e+00 
2.100000000000e+01 3.000000000000e+01 0.000000000000e+00 0.000000000000e+00 0.000000000000e+00 
2.200000000000e+01 3.000000000000e+01 0.000000000000e+00 0.000000000000e+00 0.000000000000e+00 
2.300000000000e+01 3.000000000000e+01 0.000000000000e+00 0.000000000000e+00 0.000000000000e+00 
2.400000000000e+01 3.000000000000e+01 0.000000000000e+00 0.000000000000e+00 0.000000000000e+00 
2.500000000000e+01 3.000000000000e+01 0.000000000000e+00 0.000000000000e+00 0.000000000000e+00 
2.600000000000e+01 3.000000000000e+01 0.000000000000e+00 0.000000000000e+00 0.000000000000e+00 
2.700000000000e+01 3.000000000000e+01 0.000000000000e+00 0.000000000000e+00 0.000000000000e+00 
2.800000000000e+01 3.000000000000e+01 0.000000000000e+00 0.000000000000e+00 0.000000000000e+00 
2.900000000000e+01 3.000000000000e+01 0.000000000000e+00 0.000000000000e+00 0.000000000000e+00 
3.000000000000e+01 3.000000000000e+01 0.000000000000e+00 0.000000000000e+00 0.000000000000e+00 
 TITLE = "Profiles along polylines"
 VARIABLES = "DIST" "HEAD" "VELOCITY_X1" "VELOCITY_Y1" "VELOCITY_Z1" 
 ZONE T="TIME=1.797693134862e+308"
0.000000000000e+00 3.054944255905e+01 1.757246770332e-12 -1.757236048060e-12 0.000000000000e+00 
1.000000000000e+00 3.054944311173e+01 1.684871634690e-11 -1.860643789488e-11 0.000000000000e+00 
2.000000000000e+00 3.054944372524e+01 1.735305233366e-10 -2.089782767661e-10 0.000000000000e+00 
3.000000000000e+00 3.054944439610e+01 1.577613795296e-10 -5.403554153062e-10 0.000000000000e+00 
4.000000000000e+00 3.055030319809e+01 1.297241689844e-11 -7.111838591645e-10 0.000000000000e+00 
5.000000000000e+00 3.055031890441e+01 1.889878553702e-11 -7.430447428322e-10 0.000000000000e+00 
6.000000000000e+00 3.055035316991e+01 6.959893079787e-12 -7.688820993479e-10 0.000000000000e+00 
7.000000000000e+00 3.055061821480e+01 1.235491952974e-12 -7.770677511582e-10 0.000000000000e+00 
8.000000000000e+00 3.055112295591e+01 7.017604321130e-12 -7.853198492118e-10 0.000000000000e+00 
9.000000000000e+00 3.055115617433e+01 9.686038549275e-12 -8.020286825482e-10 0.000000000000e+00 
1.000000000000e+01 3.055122860946e+01 4.194670732836e-12 -8.159190273746e-10 0.000000000000e+00 
1.100000000000e+01 3.055143477536e+01 8.984823521695e-11 -9.099636289904e-10 0.000000000000e+00 
1.200000000000e+01 3.055143788842e+01 3.665713674283e-10 -1.366403905838e-09 0.000000000000e+00 
1.300000000000e+01 3.055143961204e+01 2.818755480219e-10 -2.015079623695e-09 0.000000000000e+00 
1.400000000000e+01 3.055159457323e+01 1.386746617948e-10 -2.435836163011e-09 0.000000000000e+00 
1.500000000000e+01 3.055159985963e+01 5.093716792790e-10 -3.083918061251e-09 0.000000000000e+00 
1.600000000000e+01 3.055160250890e+01 3.794536698522e-10 -3.973014396793e-09 0.000000000000e+00 
1.700000000000e+01 3.055185810709e+01 1.721392427651e-11 -4.369920435313e-09 0.000000000000e+00 
1.800000000000e+01 3.055195502178e+01 1.968102988532e-11 -4.406823827054e-09 0.000000000000e+00 
1.900000000000e+01 3.055212553010e+01 2.403754980968e-11 -4.450550588100e-09 0.000000000000e+00 
2.000000000000e+01 3.055219884590e+01 1.993598278182e-11 -4.494536734549e-09 0.000000000000e+00 
2.100000000000e+01 3.055260466600e+01 2.769912400741e-11 -4.542180232166e-09 0.000000000000e+00 
2.200000000000e+01 3.055265594581e+01 2.499493122684e-11 -4.594892774691e-09 0.000000000000e+00 
2.300000000000e+01 3.055606018556e+01 2.173937705973e-10 -4.837281674367e-09 0.000000000000e+00 
2.400000000000e+01 3.055606662197e+01 2.572413624407e-10 -5.312019106390e-09 0.000000000000e+00 
2.500000000000e+01 3.055610485131e+01 4.436509504566e-11 -5.613780483352e-09 0.000000000000e+00 
2.600000000000e+01 3.055648472854e+01 4.166322246882e-12 -5.662345693650e-09 0.000000000000e+00 
2.700000000000e+01 3.058725395316e+01 1.901888193539e-11 -5.685530929785e-09 0.000000000000e+00 
2.800000000000e+01 3.058733706437e+01 2.483784715502e-11 -5.729394792695e-09 0.000000000000e+00 
2.900000000000e+01 3.058760787109e+01 6.776096519126e-12 -5.761020478074e-09 0.000000000000e+00 
3.000000000000e+01 3.058936922987e+01 1.809686238147e-12 -5.767800080550e-09 0.000000000000e+00 
