VARIABLES = "X","Y","Z",VELOCITY1_X,VELOCITY1_Y,VELOCITY1_Z
ZONE T="0.000000000000e+00s", 
9.990000000000e+02 0.000000000000e+00 5.000000000000e-01 0.000000000000e+00 0.000000000000e+00 0.000000000000e+00
9.990000000000e+02 0.000000000000e+00 1.500000000000e+00 0.000000000000e+00 0.000000000000e+00 0.000000000000e+00
9.990000000000e+02 0.000000000000e+00 2.500000000000e+00 0.000000000000e+00 0.000000000000e+00 0.000000000000e+00
9.990000000000e+02 0.000000000000e+00 3.500000000000e+00 0.000000000000e+00 0.000000000000e+00 0.000000000000e+00
9.990000000000e+02 0.000000000000e+00 4.500000000000e+00 0.000000000000e+00 0.000000000000e+00 0.000000000000e+00
9.990000000000e+02 0.000000000000e+00 5.500000000000e+00 0.000000000000e+00 0.000000000000e+00 0.000000000000e+00
9.990000000000e+02 0.000000000000e+00 6.500000000000e+00 0.000000000000e+00 0.000000000000e+00 0.000000000000e+00
9.990000000000e+02 0.000000000000e+00 7.500000000000e+00 0.000000000000e+00 0.000000000000e+00 0.000000000000e+00
9.990000000000e+02 0.000000000000e+00 8.500000000000e+00 0.000000000000e+00 0.000000000000e+00 0.000000000000e+00
9.990000000000e+02 0.000000000000e+00 9.500000000000e+00 0.000000000000e+00 0.000000000000e+00 0.000000000000e+00
9.990000000000e+02 0.000000000000e+00 1.050000000000e+01 0.000000000000e+00 0.000000000000e+00 0.000000000000e+00
9.990000000000e+02 0.000000000000e+00 1.150000000000e+01 0.000000000000e+00 0.000000000000e+00 0.000000000000e+00
9.990000000000e+02 0.000000000000e+00 1.250000000000e+01 0.000000000000e+00 0.000000000000e+00 0.000000000000e+00
9.990000000000e+02 0.000000000000e+00 1.350000000000e+01 0.000000000000e+00 0.000000000000e+00 0.000000000000e+00
9.990000000000e+02 0.000000000000e+00 1.450000000000e+01 0.000000000000e+00 0.000000000000e+00 0.000000000000e+00
9.990000000000e+02 0.000000000000e+00 1.550000000000e+01 0.000000000000e+00 0.000000000000e+00 0.000000000000e+00
9.990000000000e+02 0.000000000000e+00 1.650000000000e+01 0.000000000000e+00 0.000000000000e+00 0.000000000000e+00
9.990000000000e+02 0.000000000000e+00 1.750000000000e+01 0.000000000000e+00 0.000000000000e+00 0.000000000000e+00
9.990000000000e+02 0.000000000000e+00 1.850000000000e+01 0.000000000000e+00 0.000000000000e+00 0.000000000000e+00
9.990000000000e+02 0.000000000000e+00 1.950000000000e+01 0.000000000000e+00 0.000000000000e+00 0.000000000000e+00
9.990000000000e+02 0.000000000000e+00 2.050000000000e+01 0.000000000000e+00 0.000000000000e+00 0.000000000000e+00
9.990000000000e+02 0.000000000000e+00 2.150000000000e+01 0.000000000000e+00 0.000000000000e+00 0.000000000000e+00
9.990000000000e+02 0.000000000000e+00 2.250000000000e+01 0.000000000000e+00 0.000000000000e+00 0.000000000000e+00
9.990000000000e+02 0.000000000000e+00 2.350000000000e+01 0.000000000000e+00 0.000000000000e+00 0.000000000000e+00
9.990000000000e+02 0.000000000000e+00 2.450000000000e+01 0.000000000000e+00 0.000000000000e+00 0.000000000000e+00
9.990000000000e+02 0.000000000000e+00 2.550000000000e+01 0.000000000000e+00 0.000000000000e+00 0.000000000000e+00
9.990000000000e+02 0.000000000000e+00 2.650000000000e+01 0.000000000000e+00 0.000000000000e+00 0.000000000000e+00
9.990000000000e+02 0.000000000000e+00 2.750000000000e+01 0.000000000000e+00 0.000000000000e+00 0.000000000000e+00
9.990000000000e+02 0.000000000000e+00 2.850000000000e+01 0.000000000000e+00 0.000000000000e+00 0.000000000000e+00
9.990000000000e+02 0.000000000000e+00 2.950000000000e+01 0.000000000000e+00 0.000000000000e+00 0.000000000000e+00
VARIABLES = "X","Y","Z",VELOCITY1_X,VELOCITY1_Y,VELOCITY1_Z
ZONE T="1.797693134862e+308s", 
9.990000000000e+02 0.000000000000e+00 5.000000000000e-01 3.307365345653e-09 -1.853921683219e-14 0.000000000000e+00
9.990000000000e+02 0.000000000000e+00 1.500000000000e+00 6.011652037374e-08 -3.740998570084e-13 0.000000000000e+00
9.990000000000e+02 0.000000000000e+00 2.500000000000e+00 5.931086358085e-07 -4.036784894694e-12 0.000000000000e+00
9.990000000000e+02 0.000000000000e+00 3.500000000000e+00 8.466565506334e-10 -7.367532497924e-12 0.000000000000e+00
9.990000000000e+02 0.000000000000e+00 4.500000000000e+00 4.843337514071e-08 -7.706894605221e-12 0.000000000000e+00
9.990000000000e+02 0.000000000000e+00 5.500000000000e+00 2.336325626682e-08 -8.205066254623e-12 0.000000000000e+00
9.990000000000e+02 0.000000000000e+00 6.500000000000e+00 3.077696724030e-09 -8.389419774531e-12 0.000000000000e+00
9.990000000000e+02 0.000000000000e+00 7.500000000000e+00 1.626766742192e-09 -8.424337059383e-12 0.000000000000e+00
9.990000000000e+02 0.000000000000e+00 8.500000000000e+00 2.529520218234e-08 -8.646678607321e-12 0.000000000000e+00
9.990000000000e+02 0.000000000000e+00 9.500000000000e+00 1.188925649190e-08 -8.956777556378e-12 0.000000000000e+00
9.990000000000e+02 0.000000000000e+00 1.050000000000e+01 4.224762884556e-09 -9.092989594937e-12 0.000000000000e+00
9.990000000000e+02 0.000000000000e+00 1.150000000000e+01 3.418278053787e-07 -1.214973383044e-11 0.000000000000e+00
9.990000000000e+02 0.000000000000e+00 1.250000000000e+01 1.070169439152e-06 -2.464891351632e-11 0.000000000000e+00
9.990000000000e+02 0.000000000000e+00 1.350000000000e+01 1.578315768162e-08 -3.427342476969e-11 0.000000000000e+00
9.990000000000e+02 0.000000000000e+00 1.450000000000e+01 5.196444135774e-07 -3.944960246896e-11 0.000000000000e+00
9.990000000000e+02 0.000000000000e+00 1.550000000000e+01 1.447360574673e-06 -5.853253550453e-11 0.000000000000e+00
9.990000000000e+02 0.000000000000e+00 1.650000000000e+01 1.818220454418e-08 -7.278035096330e-11 0.000000000000e+00
9.990000000000e+02 0.000000000000e+00 1.750000000000e+01 4.853503813322e-08 -7.356702504829e-11 0.000000000000e+00
9.990000000000e+02 0.000000000000e+00 1.850000000000e+01 2.788591630870e-08 -7.452926157107e-11 0.000000000000e+00
9.990000000000e+02 0.000000000000e+00 1.950000000000e+01 6.574270859007e-08 -7.584180346346e-11 0.000000000000e+00
9.990000000000e+02 0.000000000000e+00 2.050000000000e+01 1.200662121037e-08 -7.698265726967e-11 0.000000000000e+00
9.990000000000e+02 0.000000000000e+00 2.150000000000e+01 9.681110914560e-08 -7.898460304993e-11 0.000000000000e+00
9.990000000000e+02 0.000000000000e+00 2.250000000000e+01 1.485752459401e-09 -8.084620616834e-11 0.000000000000e+00
9.990000000000e+02 0.000000000000e+00 2.350000000000e+01 9.065675155473e-07 -1.317626064400e-10 0.000000000000e+00
9.990000000000e+02 0.000000000000e+00 2.450000000000e+01 1.682244860010e-07 -1.928076238198e-10 0.000000000000e+00
9.990000000000e+02 0.000000000000e+00 2.550000000000e+01 1.724510879953e-08 -2.049759796873e-10 0.000000000000e+00
9.990000000000e+02 0.000000000000e+00 2.650000000000e+01 2.421762506998e-10 -2.080036819476e-10 0.000000000000e+00
9.990000000000e+02 0.000000000000e+00 2.750000000000e+01 1.679188946078e-07 -1.068415436141e-09 0.000000000000e+00
9.990000000000e+02 0.000000000000e+00 2.850000000000e+01 5.263244140063e-08 -2.504128822307e-09 0.000000000000e+00
9.990000000000e+02 0.000000000000e+00 2.950000000000e+01 9.050756942828e-09 -4.358504222218e-09 0.000000000000e+00
