VARIABLES = "X","Y","Z",VELOCITY1_X,VELOCITY1_Y,VELOCITY1_Z
ZONE T="0.000000000000e+00s", 
7.490000000000e+02 0.000000000000e+00 5.000000000000e-01 0.000000000000e+00 0.000000000000e+00 0.000000000000e+00
7.500000000000e+02 0.000000000000e+00 5.000000000000e-01 0.000000000000e+00 0.000000000000e+00 0.000000000000e+00
7.490000000000e+02 0.000000000000e+00 1.500000000000e+00 0.000000000000e+00 0.000000000000e+00 0.000000000000e+00
7.500000000000e+02 0.000000000000e+00 1.500000000000e+00 0.000000000000e+00 0.000000000000e+00 0.000000000000e+00
7.490000000000e+02 0.000000000000e+00 2.500000000000e+00 0.000000000000e+00 0.000000000000e+00 0.000000000000e+00
7.500000000000e+02 0.000000000000e+00 2.500000000000e+00 0.000000000000e+00 0.000000000000e+00 0.000000000000e+00
7.490000000000e+02 0.000000000000e+00 3.500000000000e+00 0.000000000000e+00 0.000000000000e+00 0.000000000000e+00
7.500000000000e+02 0.000000000000e+00 3.500000000000e+00 0.000000000000e+00 0.000000000000e+00 0.000000000000e+00
7.490000000000e+02 0.000000000000e+00 4.500000000000e+00 0.000000000000e+00 0.000000000000e+00 0.000000000000e+00
7.500000000000e+02 0.000000000000e+00 4.500000000000e+00 0.000000000000e+00 0.000000000000e+00 0.000000000000e+00
7.490000000000e+02 0.000000000000e+00 5.500000000000e+00 0.000000000000e+00 0.000000000000e+00 0.000000000000e+00
7.500000000000e+02 0.000000000000e+00 5.500000000000e+00 0.000000000000e+00 0.000000000000e+00 0.000000000000e+00
7.490000000000e+02 0.000000000000e+00 6.500000000000e+00 0.000000000000e+00 0.000000000000e+00 0.000000000000e+00
7.500000000000e+02 0.000000000000e+00 6.500000000000e+00 0.000000000000e+00 0.000000000000e+00 0.000000000000e+00
7.490000000000e+02 0.000000000000e+00 7.500000000000e+00 0.000000000000e+00 0.000000000000e+00 0.000000000000e+00
7.500000000000e+02 0.000000000000e+00 7.500000000000e+00 0.000000000000e+00 0.000000000000e+00 0.000000000000e+00
7.490000000000e+02 0.000000000000e+00 8.500000000000e+00 0.000000000000e+00 0.000000000000e+00 0.000000000000e+00
7.500000000000e+02 0.000000000000e+00 8.500000000000e+00 0.000000000000e+00 0.000000000000e+00 0.000000000000e+00
7.490000000000e+02 0.000000000000e+00 9.500000000000e+00 0.000000000000e+00 0.000000000000e+00 0.000000000000e+00
7.500000000000e+02 0.000000000000e+00 9.500000000000e+00 0.000000000000e+00 0.000000000000e+00 0.000000000000e+00
7.490000000000e+02 0.000000000000e+00 1.050000000000e+01 0.000000000000e+00 0.000000000000e+00 0.000000000000e+00
7.500000000000e+02 0.000000000000e+00 1.050000000000e+01 0.000000000000e+00 0.000000000000e+00 0.000000000000e+00
7.490000000000e+02 0.000000000000e+00 1.150000000000e+01 0.000000000000e+00 0.000000000000e+00 0.000000000000e+00
7.500000000000e+02 0.000000000000e+00 1.150000000000e+01 0.000000000000e+00 0.000000000000e+00 0.000000000000e+00
7.490000000000e+02 0.000000000000e+00 1.250000000000e+01 0.000000000000e+00 0.000000000000e+00 0.000000000000e+00
7.500000000000e+02 0.000000000000e+00 1.250000000000e+01 0.000000000000e+00 0.000000000000e+00 0.000000000000e+00
7.490000000000e+02 0.000000000000e+00 1.350000000000e+01 0.000000000000e+00 0.000000000000e+00 0.000000000000e+00
7.500000000000e+02 0.000000000000e+00 1.350000000000e+01 0.000000000000e+00 0.000000000000e+00 0.000000000000e+00
7.490000000000e+02 0.000000000000e+00 1.450000000000e+01 0.000000000000e+00 0.000000000000e+00 0.000000000000e+00
7.500000000000e+02 0.000000000000e+00 1.450000000000e+01 0.000000000000e+00 0.000000000000e+00 0.000000000000e+00
7.490000000000e+02 0.000000000000e+00 1.550000000000e+01 0.000000000000e+00 0.000000000000e+00 0.000000000000e+00
7.500000000000e+02 0.000000000000e+00 1.550000000000e+01 0.000000000000e+00 0.000000000000e+00 0.000000000000e+00
7.490000000000e+02 0.000000000000e+00 1.650000000000e+01 0.000000000000e+00 0.000000000000e+00 0.000000000000e+00
7.500000000000e+02 0.000000000000e+00 1.650000000000e+01 0.000000000000e+00 0.000000000000e+00 0.000000000000e+00
7.490000000000e+02 0.000000000000e+00 1.750000000000e+01 0.000000000000e+00 0.000000000000e+00 0.000000000000e+00
7.500000000000e+02 0.000000000000e+00 1.750000000000e+01 0.000000000000e+00 0.000000000000e+00 0.000000000000e+00
7.490000000000e+02 0.000000000000e+00 1.850000000000e+01 0.000000000000e+00 0.000000000000e+00 0.000000000000e+00
7.500000000000e+02 0.000000000000e+00 1.850000000000e+01 0.000000000000e+00 0.000000000000e+00 0.000000000000e+00
7.490000000000e+02 0.000000000000e+00 1.950000000000e+01 0.000000000000e+00 0.000000000000e+00 0.000000000000e+00
7.500000000000e+02 0.000000000000e+00 1.950000000000e+01 0.000000000000e+00 0.000000000000e+00 0.000000000000e+00
7.490000000000e+02 0.000000000000e+00 2.050000000000e+01 0.000000000000e+00 0.000000000000e+00 0.000000000000e+00
7.500000000000e+02 0.000000000000e+00 2.050000000000e+01 0.000000000000e+00 0.000000000000e+00 0.000000000000e+00
7.490000000000e+02 0.000000000000e+00 2.150000000000e+01 0.000000000000e+00 0.000000000000e+00 0.000000000000e+00
7.500000000000e+02 0.000000000000e+00 2.150000000000e+01 0.000000000000e+00 0.000000000000e+00 0.000000000000e+00
7.490000000000e+02 0.000000000000e+00 2.250000000000e+01 0.000000000000e+00 0.000000000000e+00 0.000000000000e+00
7.500000000000e+02 0.000000000000e+00 2.250000000000e+01 0.000000000000e+00 0.000000000000e+00 0.000000000000e+00
7.490000000000e+02 0.000000000000e+00 2.350000000000e+01 0.000000000000e+00 0.000000000000e+00 0.000000000000e+00
7.500000000000e+02 0.000000000000e+00 2.350000000000e+01 0.000000000000e+00 0.000000000000e+00 0.000000000000e+00
7.490000000000e+02 0.000000000000e+00 2.450000000000e+01 0.000000000000e+00 0.000000000000e+00 0.000000000000e+00
7.500000000000e+02 0.000000000000e+00 2.450000000000e+01 0.000000000000e+00 0.000000000000e+00 0.000000000000e+00
7.490000000000e+02 0.000000000000e+00 2.550000000000e+01 0.000000000000e+00 0.000000000000e+00 0.000000000000e+00
7.500000000000e+02 0.000000000000e+00 2.550000000000e+01 0.000000000000e+00 0.000000000000e+00 0.000000000000e+00
7.490000000000e+02 0.000000000000e+00 2.650000000000e+01 0.000000000000e+00 0.000000000000e+00 0.000000000000e+00
7.500000000000e+02 0.000000000000e+00 2.650000000000e+01 0.000000000000e+00 0.000000000000e+00 0.000000000000e+00
7.490000000000e+02 0.000000000000e+00 2.750000000000e+01 0.000000000000e+00 0.000000000000e+00 0.000000000000e+00
7.500000000000e+02 0.000000000000e+00 2.750000000000e+01 0.000000000000e+00 0.000000000000e+00 0.000000000000e+00
7.490000000000e+02 0.000000000000e+00 2.850000000000e+01 0.000000000000e+00 0.000000000000e+00 0.000000000000e+00
7.500000000000e+02 0.000000000000e+00 2.850000000000e+01 0.000000000000e+00 0.000000000000e+00 0.000000000000e+00
7.490000000000e+02 0.000000000000e+00 2.950000000000e+01 0.000000000000e+00 0.000000000000e+00 0.000000000000e+00
7.500000000000e+02 0.000000000000e+00 2.950000000000e+01 0.000000000000e+00 0.000000000000e+00 0.000000000000e+00
VARIABLES = "X","Y","Z",VELOCITY1_X,VELOCITY1_Y,VELOCITY1_Z
ZONE T="1.797693134862e+308s", 
7.490000000000e+02 0.000000000000e+00 5.000000000000e-01 2.633786284233e-09 -1.748063185252e-12 0.000000000000e+00
7.500000000000e+02 0.000000000000e+00 5.000000000000e-01 2.637282030486e-09 -1.747839562206e-12 0.000000000000e+00
7.490000000000e+02 0.000000000000e+00 1.500000000000e+00 4.787286892796e-08 -3.526967329342e-11 0.000000000000e+00
7.500000000000e+02 0.000000000000e+00 1.500000000000e+00 4.793640934686e-08 -3.526514049801e-11 0.000000000000e+00
7.490000000000e+02 0.000000000000e+00 2.500000000000e+00 4.723096625035e-07 -3.805184140417e-10 0.000000000000e+00
7.500000000000e+02 0.000000000000e+00 2.500000000000e+00 4.729365489295e-07 -3.804693265799e-10 0.000000000000e+00
7.490000000000e+02 0.000000000000e+00 3.500000000000e+00 6.734779462956e-10 -6.944221987399e-10 0.000000000000e+00
7.500000000000e+02 0.000000000000e+00 3.500000000000e+00 6.743720778561e-10 -6.943294151970e-10 0.000000000000e+00
7.490000000000e+02 0.000000000000e+00 4.500000000000e+00 3.819814570534e-08 -7.202811254165e-10 0.000000000000e+00
7.500000000000e+02 0.000000000000e+00 4.500000000000e+00 3.824896445281e-08 -7.201866189097e-10 0.000000000000e+00
7.490000000000e+02 0.000000000000e+00 5.500000000000e+00 1.842229167652e-08 -7.579481759372e-10 0.000000000000e+00
7.500000000000e+02 0.000000000000e+00 5.500000000000e+00 1.844680185772e-08 -7.578506293040e-10 0.000000000000e+00
7.490000000000e+02 0.000000000000e+00 6.500000000000e+00 2.425142354690e-09 -7.718178974684e-10 0.000000000000e+00
7.500000000000e+02 0.000000000000e+00 6.500000000000e+00 2.428369442030e-09 -7.717192194646e-10 0.000000000000e+00
7.490000000000e+02 0.000000000000e+00 7.500000000000e+00 1.277580077581e-09 -7.742830716159e-10 0.000000000000e+00
7.500000000000e+02 0.000000000000e+00 7.500000000000e+00 1.279281445187e-09 -7.741842551966e-10 0.000000000000e+00
7.490000000000e+02 0.000000000000e+00 8.500000000000e+00 1.976372888936e-08 -7.883100556443e-10 0.000000000000e+00
7.500000000000e+02 0.000000000000e+00 8.500000000000e+00 1.979007988138e-08 -7.882108484175e-10 0.000000000000e+00
7.490000000000e+02 0.000000000000e+00 9.500000000000e+00 9.285341737042e-09 -8.076756717493e-10 0.000000000000e+00
7.500000000000e+02 0.000000000000e+00 9.500000000000e+00 9.297723087025e-09 -8.075762665786e-10 0.000000000000e+00
7.490000000000e+02 0.000000000000e+00 1.050000000000e+01 3.296137539408e-09 -8.160648862527e-10 0.000000000000e+00
7.500000000000e+02 0.000000000000e+00 1.050000000000e+01 3.300533653090e-09 -8.159654857550e-10 0.000000000000e+00
7.490000000000e+02 0.000000000000e+00 1.150000000000e+01 2.661253770115e-07 -9.958096464585e-10 0.000000000000e+00
7.500000000000e+02 0.000000000000e+00 1.150000000000e+01 2.664804714871e-07 -9.957092377360e-10 0.000000000000e+00
7.490000000000e+02 0.000000000000e+00 1.250000000000e+01 8.331340648470e-07 -1.729176103382e-09 0.000000000000e+00
7.500000000000e+02 0.000000000000e+00 1.250000000000e+01 8.342457324741e-07 -1.729072974800e-09 0.000000000000e+00
7.490000000000e+02 0.000000000000e+00 1.350000000000e+01 1.228363467740e-08 -2.293183735417e-09 0.000000000000e+00
7.500000000000e+02 0.000000000000e+00 1.350000000000e+01 1.230002525930e-08 -2.293081199615e-09 0.000000000000e+00
7.490000000000e+02 0.000000000000e+00 1.450000000000e+01 4.035489628523e-07 -2.570648278665e-09 0.000000000000e+00
7.500000000000e+02 0.000000000000e+00 1.450000000000e+01 4.040875015837e-07 -2.570548532961e-09 0.000000000000e+00
7.490000000000e+02 0.000000000000e+00 1.550000000000e+01 1.123910194537e-06 -3.589850623787e-09 0.000000000000e+00
7.500000000000e+02 0.000000000000e+00 1.550000000000e+01 1.125410065499e-06 -3.589757502350e-09 0.000000000000e+00
7.490000000000e+02 0.000000000000e+00 1.650000000000e+01 1.411118103084e-08 -4.349191024347e-09 0.000000000000e+00
7.500000000000e+02 0.000000000000e+00 1.650000000000e+01 1.413001289071e-08 -4.349090860638e-09 0.000000000000e+00
7.490000000000e+02 0.000000000000e+00 1.750000000000e+01 3.751081467784e-08 -4.383641063352e-09 0.000000000000e+00
7.500000000000e+02 0.000000000000e+00 1.750000000000e+01 3.756088066200e-08 -4.383541192876e-09 0.000000000000e+00
7.490000000000e+02 0.000000000000e+00 1.850000000000e+01 2.151206246198e-08 -4.423034448306e-09 0.000000000000e+00
7.500000000000e+02 0.000000000000e+00 1.850000000000e+01 2.154077636871e-08 -4.422934970345e-09 0.000000000000e+00
7.490000000000e+02 0.000000000000e+00 1.950000000000e+01 5.057359028086e-08 -4.471149496422e-09 0.000000000000e+00
7.500000000000e+02 0.000000000000e+00 1.950000000000e+01 5.064110072280e-08 -4.471050769072e-09 0.000000000000e+00
7.490000000000e+02 0.000000000000e+00 2.050000000000e+01 9.218149002824e-09 -4.511061871678e-09 0.000000000000e+00
7.500000000000e+02 0.000000000000e+00 2.050000000000e+01 9.230454994162e-09 -4.510963425674e-09 0.000000000000e+00
7.490000000000e+02 0.000000000000e+00 2.150000000000e+01 7.384678598966e-08 -4.566516549922e-09 0.000000000000e+00
7.500000000000e+02 0.000000000000e+00 2.150000000000e+01 7.394538934892e-08 -4.566419666128e-09 0.000000000000e+00
7.490000000000e+02 0.000000000000e+00 2.250000000000e+01 1.124582448807e-09 -4.616568032341e-09 0.000000000000e+00
7.500000000000e+02 0.000000000000e+00 2.250000000000e+01 1.126084385804e-09 -4.616471777983e-09 0.000000000000e+00
7.490000000000e+02 0.000000000000e+00 2.350000000000e+01 6.508165056136e-07 -5.052596848241e-09 0.000000000000e+00
7.500000000000e+02 0.000000000000e+00 2.350000000000e+01 6.516871246395e-07 -5.052535124565e-09 0.000000000000e+00
7.490000000000e+02 0.000000000000e+00 2.450000000000e+01 1.207317001515e-07 -5.568608178833e-09 0.000000000000e+00
7.500000000000e+02 0.000000000000e+00 2.450000000000e+01 1.208932072379e-07 -5.568584625182e-09 0.000000000000e+00
7.490000000000e+02 0.000000000000e+00 2.550000000000e+01 1.234367716218e-08 -5.657609205066e-09 0.000000000000e+00
7.500000000000e+02 0.000000000000e+00 2.550000000000e+01 1.236018987635e-08 -5.657591667116e-09 0.000000000000e+00
7.490000000000e+02 0.000000000000e+00 2.650000000000e+01 1.526217709871e-10 -5.665967161151e-09 0.000000000000e+00
7.500000000000e+02 0.000000000000e+00 2.650000000000e+01 1.528260039753e-10 -5.665950244975e-09 0.000000000000e+00
7.490000000000e+02 0.000000000000e+00 2.750000000000e+01 5.688809163077e-08 -5.704211442681e-09 0.000000000000e+00
7.500000000000e+02 0.000000000000e+00 2.750000000000e+01 5.696438631866e-08 -5.704200829131e-09 0.000000000000e+00
7.490000000000e+02 0.000000000000e+00 2.850000000000e+01 1.761117749455e-08 -5.754162408151e-09 0.000000000000e+00
7.500000000000e+02 0.000000000000e+00 2.850000000000e+01 1.763479653988e-08 -5.754160192070e-09 0.000000000000e+00
7.490000000000e+02 0.000000000000e+00 2.950000000000e+01 2.714077255233e-09 -5.767790542879e-09 0.000000000000e+00
7.500000000000e+02 0.000000000000e+00 2.950000000000e+01 2.717717228126e-09 -5.767790281083e-09 0.000000000000e+00
