 TITLE = "Profiles along polylines"
 VARIABLES = "DIST" "HEAD" "VELOCITY_X1" "VELOCITY_Y1" "VELOCITY_Z1" 
 ZONE T="TIME=0.000000000000e+00"
0.000000000000e+00 3.000000000000e+01 0.000000000000e+00 0.000000000000e+00 0.000000000000e+00 
1.000000000000e+00 3.000000000000e+01 0.000000000000e+00 0.000000000000e+00 0.000000000000e+00 
2.000000000000e+00 3.000000000000e+01 0.000000000000e+00 0.000000000000e+00 0.000000000000e+00 
3.000000000000e+00 3.000000000000e+01 0.000000000000e+00 0.000000000000e+00 0.000000000000e+00 
4.000000000000e+00 3.000000000000e+01 0.000000000000e+00 0.000000000000e+00 0.000000000000e+00 
5.000000000000e+00 3.000000000000e+01 0.000000000000e+00 0.000000000000e+00 0.000000000000e+00 
6.000000000000e+00 3.000000000000e+01 0.000000000000e+00 0.000000000000e+00 0.000000000000e+00 
7.000000000000e+00 3.000000000000e+01 0.000000000000e+00 0.000000000000e+00 0.000000000000e+00 
8.000000000000e+00 3.000000000000e+01 0.000000000000e+00 0.000000000000e+00 0.000000000000e+00 
9.000000000000e+00 3.000000000000e+01 0.000000000000e+00 0.000000000000e+00 0.000000000000e+00 
1.000000000000e+01 3.000000000000e+01 0.000000000000e+00 0.000000000000e+00 0.000000000000e+00 
1.100000000000e+01 3.000000000000e+01 0.000000000000e+00 0.000000000000e+00 0.000000000000e+00 
1.200000000000e+01 3.000000000000e+01 0.000000000000e+00 0.000000000000e+00 0.000000000000e+00 
1.300000000000e+01 3.000000000000e+01 0.000000000000e+00 0.000000000000e+00 0.000000000000e+00 
1.400000000000e+01 3.000000000000e+01 0.000000000000e+00 0.000000000000e+00 0.000000000000e+00 
1.500000000000e+01 3.000000000000e+01 0.000000000000e+00 0.000000000000e+00 0.000000000000e+00 
1.600000000000e+01 3.000000000000e+01 0.000000000000e+00 0.000000000000e+00 0.000000000000e+00 
1.700000000000e+01 3.000000000000e+01 0.000000000000e+00 0.000000000000e+00 0.000000000000e+00 
1.800000000000e+01 3.000000000000e+01 0.000000000000e+00 0.000000000000e+00 0.000000000000e+00 
1.900000000000e+01 3.000000000000e+01 0.000000000000e+00 0.000000000000e+00 0.000000000000e+00 
2.000000000000e+01 3.000000000000e+01 0.000000000000e+00 0.000000000000e+00 0.000000000000e+00 
2.100000000000e+01 3.000000000000e+01 0.000000000000e+00 0.000000000000e+00 0.000000000000e+00 
2.200000000000e+01 3.000000000000e+01 0.000000000000e+00 0.000000000000e+00 0.000000000000e+00 
2.300000000000e+01 3.000000000000e+01 0.000000000000e+00 0.000000000000e+00 0.000000000000e+00 
2.400000000000e+01 3.000000000000e+01 0.000000000000e+00 0.000000000000e+00 0.000000000000e+00 
2.500000000000e+01 3.000000000000e+01 0.000000000000e+00 0.000000000000e+00 0.000000000000e+00 
2.600000000000e+01 3.000000000000e+01 0.000000000000e+00 0.000000000000e+00 0.000000000000e+00 
2.700000000000e+01 3.000000000000e+01 0.000000000000e+00 0.000000000000e+00 0.000000000000e+00 
2.800000000000e+01 3.000000000000e+01 0.000000000000e+00 0.000000000000e+00 0.000000000000e+00 
2.900000000000e+01 3.000000000000e+01 0.000000000000e+00 0.000000000000e+00 0.000000000000e+00 
3.000000000000e+01 3.000000000000e+01 0.000000000000e+00 0.000000000000e+00 0.000000000000e+00 
 TITLE = "Profiles along polylines"
 VARIABLES = "DIST" "HEAD" "VELOCITY_X1" "VELOCITY_Y1" "VELOCITY_Z1" 
 ZONE T="TIME=1.797693134862e+308"
0.000000000000e+00 3.054806096843e+01 1.757106250890e-10 -1.757282680991e-12 0.000000000000e+00 
1.000000000000e+00 3.054806152112e+01 1.684752504701e-09 -1.860684240438e-11 0.000000000000e+00 
2.000000000000e+00 3.054806213464e+01 1.735174955873e-08 -2.089974198927e-10 0.000000000000e+00 
3.000000000000e+00 3.054806280556e+01 1.577731881168e-08 -5.403741572302e-10 0.000000000000e+00 
4.000000000000e+00 3.054892160751e+01 1.296463407787e-09 -7.111755814242e-10 0.000000000000e+00 
5.000000000000e+00 3.054893731347e+01 1.888423661557e-09 -7.430325424483e-10 0.000000000000e+00 
6.000000000000e+00 3.054897157861e+01 6.953084240040e-10 -7.688794624717e-10 0.000000000000e+00 
7.000000000000e+00 3.054923662440e+01 1.234912503294e-10 -7.770702423792e-10 0.000000000000e+00 
8.000000000000e+00 3.054974136705e+01 7.016940386260e-10 -7.853229190536e-10 0.000000000000e+00 
9.000000000000e+00 3.054977458563e+01 9.687344615420e-10 -8.020309569700e-10 0.000000000000e+00 
1.000000000000e+01 3.054984702083e+01 4.195665598499e-10 -8.159185912086e-10 0.000000000000e+00 
1.100000000000e+01 3.055005318630e+01 8.984310929451e-09 -9.099695528194e-10 0.000000000000e+00 
1.200000000000e+01 3.055005629942e+01 3.665662223796e-08 -1.366465301343e-09 0.000000000000e+00 
1.300000000000e+01 3.055005802314e+01 2.819184854905e-08 -2.015131118371e-09 0.000000000000e+00 
1.400000000000e+01 3.055021298390e+01 1.386651486105e-08 -2.435834148347e-09 0.000000000000e+00 
1.500000000000e+01 3.055021827031e+01 5.093522512701e-08 -3.083970289651e-09 0.000000000000e+00 
1.600000000000e+01 3.055022091966e+01 3.794888426403e-08 -3.973067506091e-09 0.000000000000e+00 
1.700000000000e+01 3.055047651808e+01 1.721397161466e-09 -4.369924036607e-09 0.000000000000e+00 
1.800000000000e+01 3.055057343284e+01 1.968183079598e-09 -4.406826286676e-09 0.000000000000e+00 
1.900000000000e+01 3.055074394123e+01 2.403764723165e-09 -4.450553091331e-09 0.000000000000e+00 
2.000000000000e+01 3.055081725708e+01 1.993809250672e-09 -4.494537551885e-09 0.000000000000e+00 
2.100000000000e+01 3.055122307704e+01 2.769846000069e-09 -4.542182797502e-09 0.000000000000e+00 
2.200000000000e+01 3.055127435692e+01 2.499958678171e-09 -4.594896285277e-09 0.000000000000e+00 
2.300000000000e+01 3.055467859687e+01 2.173741450932e-08 -4.837303090540e-09 0.000000000000e+00 
2.400000000000e+01 3.055468503334e+01 2.572542618388e-08 -5.312050995651e-09 0.000000000000e+00 
2.500000000000e+01 3.055472326282e+01 4.437079933917e-09 -5.613791190000e-09 0.000000000000e+00 
2.600000000000e+01 3.055510314006e+01 4.166589848237e-10 -5.662345772027e-09 0.000000000000e+00 
2.700000000000e+01 3.058587236446e+01 1.901670866110e-09 -5.685531095558e-09 0.000000000000e+00 
2.800000000000e+01 3.058595547568e+01 2.483717717106e-09 -5.729396034416e-09 0.000000000000e+00 
2.900000000000e+01 3.058622628250e+01 6.776197102193e-10 -5.761021645577e-09 0.000000000000e+00 
3.000000000000e+01 3.058798764135e+01 1.809681442515e-10 -5.767800304082e-09 0.000000000000e+00 
