 TITLE = "Profiles along polylines"
 VARIABLES = "DIST" "HEAD" "VELOCITY_X1" "VELOCITY_Y1" "VELOCITY_Z1" 
 ZONE T="TIME=0.000000000000e+00"
0.000000000000e+00 3.000000000000e+01 0.000000000000e+00 0.000000000000e+00 0.000000000000e+00 
1.000000000000e+00 3.000000000000e+01 0.000000000000e+00 0.000000000000e+00 0.000000000000e+00 
2.000000000000e+00 3.000000000000e+01 0.000000000000e+00 0.000000000000e+00 0.000000000000e+00 
3.000000000000e+00 3.000000000000e+01 0.000000000000e+00 0.000000000000e+00 0.000000000000e+00 
4.000000000000e+00 3.000000000000e+01 0.000000000000e+00 0.000000000000e+00 0.000000000000e+00 
5.000000000000e+00 3.000000000000e+01 0.000000000000e+00 0.000000000000e+00 0.000000000000e+00 
6.000000000000e+00 3.000000000000e+01 0.000000000000e+00 0.000000000000e+00 0.000000000000e+00 
7.000000000000e+00 3.000000000000e+01 0.000000000000e+00 0.000000000000e+00 0.000000000000e+00 
8.000000000000e+00 3.000000000000e+01 0.000000000000e+00 0.000000000000e+00 0.000000000000e+00 
9.000000000000e+00 3.000000000000e+01 0.000000000000e+00 0.000000000000e+00 0.000000000000e+00 
1.000000000000e+01 3.000000000000e+01 0.000000000000e+00 0.000000000000e+00 0.000000000000e+00 
1.100000000000e+01 3.000000000000e+01 0.000000000000e+00 0.000000000000e+00 0.000000000000e+00 
1.200000000000e+01 3.000000000000e+01 0.000000000000e+00 0.000000000000e+00 0.000000000000e+00 
1.300000000000e+01 3.000000000000e+01 0.000000000000e+00 0.000000000000e+00 0.000000000000e+00 
1.400000000000e+01 3.000000000000e+01 0.000000000000e+00 0.000000000000e+00 0.000000000000e+00 
1.500000000000e+01 3.000000000000e+01 0.000000000000e+00 0.000000000000e+00 0.000000000000e+00 
1.600000000000e+01 3.000000000000e+01 0.000000000000e+00 0.000000000000e+00 0.000000000000e+00 
1.700000000000e+01 3.000000000000e+01 0.000000000000e+00 0.000000000000e+00 0.000000000000e+00 
1.800000000000e+01 3.000000000000e+01 0.000000000000e+00 0.000000000000e+00 0.000000000000e+00 
1.900000000000e+01 3.000000000000e+01 0.000000000000e+00 0.000000000000e+00 0.000000000000e+00 
2.000000000000e+01 3.000000000000e+01 0.000000000000e+00 0.000000000000e+00 0.000000000000e+00 
2.100000000000e+01 3.000000000000e+01 0.000000000000e+00 0.000000000000e+00 0.000000000000e+00 
2.200000000000e+01 3.000000000000e+01 0.000000000000e+00 0.000000000000e+00 0.000000000000e+00 
2.300000000000e+01 3.000000000000e+01 0.000000000000e+00 0.000000000000e+00 0.000000000000e+00 
2.400000000000e+01 3.000000000000e+01 0.000000000000e+00 0.000000000000e+00 0.000000000000e+00 
2.500000000000e+01 3.000000000000e+01 0.000000000000e+00 0.000000000000e+00 0.000000000000e+00 
2.600000000000e+01 3.000000000000e+01 0.000000000000e+00 0.000000000000e+00 0.000000000000e+00 
2.700000000000e+01 3.000000000000e+01 0.000000000000e+00 0.000000000000e+00 0.000000000000e+00 
2.800000000000e+01 3.000000000000e+01 0.000000000000e+00 0.000000000000e+00 0.000000000000e+00 
2.900000000000e+01 3.000000000000e+01 0.000000000000e+00 0.000000000000e+00 0.000000000000e+00 
3.000000000000e+01 3.000000000000e+01 0.000000000000e+00 0.000000000000e+00 0.000000000000e+00 
 TITLE = "Profiles along polylines"
 VARIABLES = "DIST" "HEAD" "VELOCITY_X1" "VELOCITY_Y1" "VELOCITY_Z1" 
 ZONE T="TIME=1.797693134862e+308"
0.000000000000e+00 3.001040002749e+01 3.305279113888e-09 -2.078692823742e-13 0.000000000000e+00 
1.000000000000e+00 3.001040009287e+01 3.169194458022e-08 -2.201281287487e-12 0.000000000000e+00 
2.000000000000e+00 3.001040016545e+01 3.264066544467e-07 -2.472897761388e-11 0.000000000000e+00 
3.000000000000e+00 3.001040024484e+01 2.967919854321e-07 -6.393748389640e-11 0.000000000000e+00 
4.000000000000e+00 3.001050185768e+01 2.462414672210e-08 -8.451090260176e-11 0.000000000000e+00 
5.000000000000e+00 3.001050373184e+01 3.587377892933e-08 -8.918497717551e-11 0.000000000000e+00 
6.000000000000e+00 3.001050786745e+01 1.321369821262e-08 -9.299015230613e-11 0.000000000000e+00 
7.000000000000e+00 3.001053998732e+01 2.353931946268e-09 -9.421548923612e-11 0.000000000000e+00 
8.000000000000e+00 3.001060121396e+01 1.345219168064e-08 -9.564903486852e-11 0.000000000000e+00 
9.000000000000e+00 3.001060527593e+01 1.857866307448e-08 -9.860931166043e-11 0.000000000000e+00 
1.000000000000e+01 3.001061422913e+01 8.053284197273e-09 -1.010891152473e-10 0.000000000000e+00 
1.100000000000e+01 3.001063983206e+01 1.728589817481e-07 -1.188431443717e-10 0.000000000000e+00 
1.200000000000e+01 3.001064025501e+01 7.053044365555e-07 -2.052420998563e-10 0.000000000000e+00 
1.300000000000e+01 3.001064052817e+01 5.424486189056e-07 -3.280556886788e-10 0.000000000000e+00 
1.400000000000e+01 3.001066626101e+01 2.674397563265e-07 -4.100576059393e-10 0.000000000000e+00 
1.500000000000e+01 3.001066716171e+01 9.824548321371e-07 -5.439867746714e-10 0.000000000000e+00 
1.600000000000e+01 3.001066764044e+01 7.320020096697e-07 -7.279471738808e-10 0.000000000000e+00 
1.700000000000e+01 3.001071500359e+01 3.334695141781e-08 -8.108274764705e-10 0.000000000000e+00 
1.800000000000e+01 3.001073300935e+01 3.818967167899e-08 -8.202569099767e-10 0.000000000000e+00 
1.900000000000e+01 3.001076480470e+01 4.677505927246e-08 -8.324104122721e-10 0.000000000000e+00 
2.000000000000e+01 3.001077855807e+01 3.884556829774e-08 -8.454284348322e-10 0.000000000000e+00 
2.100000000000e+01 3.001085509872e+01 5.433483295486e-08 -8.617934634935e-10 0.000000000000e+00 
2.200000000000e+01 3.001086488504e+01 4.908311583926e-08 -8.816809009251e-10 0.000000000000e+00 
2.300000000000e+01 3.001152160655e+01 4.515445963625e-07 -1.119249289608e-09 0.000000000000e+00 
2.400000000000e+01 3.001152332210e+01 5.344553066984e-07 -1.618157020699e-09 0.000000000000e+00 
2.500000000000e+01 3.001153628894e+01 9.226635447213e-08 -1.937588736438e-09 0.000000000000e+00 
2.600000000000e+01 3.001166963269e+01 8.744792453450e-09 -1.992473599591e-09 0.000000000000e+00 
2.700000000000e+01 3.002252327117e+01 6.975140461495e-08 -2.693692942145e-09 0.000000000000e+00 
2.800000000000e+01 3.002257264010e+01 9.116635357310e-08 -4.297583254464e-09 0.000000000000e+00 
2.900000000000e+01 3.002281767393e+01 2.488621291964e-08 -5.454918156255e-09 0.000000000000e+00 
3.000000000000e+01 3.002455931475e+01 6.649038511649e-09 -5.703231020049e-09 0.000000000000e+00 
