 TITLE = "Profiles along polylines"
 VARIABLES = "DIST" "SATURATION1" 
 ZONE T="TIME=0.000000000000e+00"
0.000000000000e+00 1.000000000000e+00 
0.000000000000e+00 1.000000000000e+00 
5.441042851206e-01 1.000000000000e+00 
5.441042851206e-01 1.000000000000e+00 
1.082767527447e+00 1.000000000000e+00 
1.082767527447e+00 1.000000000000e+00 
1.616044136177e+00 1.000000000000e+00 
1.616044136177e+00 1.000000000000e+00 
2.143987978862e+00 1.000000000000e+00 
2.143987978862e+00 1.000000000000e+00 
2.666652384904e+00 1.000000000000e+00 
2.666652384904e+00 1.000000000000e+00 
3.184090148728e+00 1.000000000000e+00 
3.184090148728e+00 1.000000000000e+00 
3.696353533103e+00 1.000000000000e+00 
3.696353533103e+00 1.000000000000e+00 
4.203494283380e+00 1.000000000000e+00 
4.203494283380e+00 1.000000000000e+00 
4.705563626669e+00 1.000000000000e+00 
4.705563626669e+00 1.000000000000e+00 
5.202612278494e+00 1.000000000000e+00 
5.202612278494e+00 1.000000000000e+00 
5.694690445536e+00 1.000000000000e+00 
5.694690445536e+00 1.000000000000e+00 
6.181847828274e+00 1.000000000000e+00 
6.181847828274e+00 1.000000000000e+00 
6.664133634867e+00 1.000000000000e+00 
6.664133634867e+00 1.000000000000e+00 
7.141596583478e+00 1.000000000000e+00 
7.141596583478e+00 1.000000000000e+00 
7.614284904664e+00 1.000000000000e+00 
7.614284904664e+00 1.000000000000e+00 
8.082246343617e+00 1.000000000000e+00 
8.082246343617e+00 1.000000000000e+00 
8.545528166141e+00 1.000000000000e+00 
8.545528166141e+00 1.000000000000e+00 
9.004177171908e+00 1.000000000000e+00 
9.004177171908e+00 1.000000000000e+00 
9.458239688845e+00 1.000000000000e+00 
9.458239688845e+00 1.000000000000e+00 
9.907761578910e+00 1.000000000000e+00 
9.907761578910e+00 1.000000000000e+00 
1.035278825100e+01 1.000000000000e+00 
1.035278825100e+01 1.000000000000e+00 
1.079336465513e+01 1.000000000000e+00 
1.079336465513e+01 1.000000000000e+00 
1.122953529539e+01 1.000000000000e+00 
1.122953529539e+01 1.000000000000e+00 
1.166134423122e+01 1.000000000000e+00 
1.166134423122e+01 1.000000000000e+00 
1.208883507532e+01 1.000000000000e+00 
1.208883507532e+01 1.000000000000e+00 
1.251205100982e+01 1.000000000000e+00 
1.251205100982e+01 1.000000000000e+00 
1.293103478751e+01 1.000000000000e+00 
1.293103478751e+01 1.000000000000e+00 
1.334582872926e+01 1.000000000000e+00 
1.334582872926e+01 1.000000000000e+00 
1.375647472886e+01 1.000000000000e+00 
1.375647472886e+01 1.000000000000e+00 
1.416301426525e+01 1.000000000000e+00 
1.416301426525e+01 1.000000000000e+00 
1.456548840709e+01 1.000000000000e+00 
1.456548840709e+01 1.000000000000e+00 
1.496393780979e+01 1.000000000000e+00 
1.496393780979e+01 1.000000000000e+00 
1.535840272005e+01 1.000000000000e+00 
1.535840272005e+01 1.000000000000e+00 
1.574892298024e+01 1.000000000000e+00 
1.574892298024e+01 1.000000000000e+00 
1.613553803648e+01 1.000000000000e+00 
1.613553803648e+01 1.000000000000e+00 
1.651828694278e+01 1.000000000000e+00 
1.651828694278e+01 1.000000000000e+00 
1.689720836151e+01 1.000000000000e+00 
1.689720836151e+01 1.000000000000e+00 
1.727234056739e+01 1.000000000000e+00 
1.727234056739e+01 1.000000000000e+00 
1.764372145159e+01 1.000000000000e+00 
1.764372145159e+01 1.000000000000e+00 
1.801138852555e+01 1.000000000000e+00 
1.801138852555e+01 1.000000000000e+00 
1.837537892864e+01 1.000000000000e+00 
1.837537892864e+01 1.000000000000e+00 
1.873572942807e+01 1.000000000000e+00 
1.873572942807e+01 1.000000000000e+00 
1.909247642267e+01 1.000000000000e+00 
1.909247642267e+01 1.000000000000e+00 
1.944565594642e+01 1.000000000000e+00 
1.944565594642e+01 1.000000000000e+00 
1.979530367209e+01 1.000000000000e+00 
1.979530367209e+01 1.000000000000e+00 
2.014145492208e+01 1.000000000000e+00 
2.014145492208e+01 1.000000000000e+00 
2.048414466058e+01 1.000000000000e+00 
2.048414466058e+01 1.000000000000e+00 
2.082340750076e+01 1.000000000000e+00 
2.082340750076e+01 1.000000000000e+00 
2.115927771161e+01 1.000000000000e+00 
2.115927771161e+01 1.000000000000e+00 
2.149178922127e+01 1.000000000000e+00 
2.149178922127e+01 1.000000000000e+00 
2.182097561621e+01 1.000000000000e+00 
2.182097561621e+01 1.000000000000e+00 
2.214687014446e+01 1.000000000000e+00 
2.214687014446e+01 1.000000000000e+00 
2.246950572974e+01 1.000000000000e+00 
2.246950572974e+01 1.000000000000e+00 
2.278891495927e+01 1.000000000000e+00 
2.278891495927e+01 1.000000000000e+00 
2.310513009435e+01 1.000000000000e+00 
2.310513009435e+01 1.000000000000e+00 
2.341818308041e+01 1.000000000000e+00 
2.341818308041e+01 1.000000000000e+00 
2.372810553851e+01 1.000000000000e+00 
2.372810553851e+01 1.000000000000e+00 
2.403492877185e+01 1.000000000000e+00 
2.403492877185e+01 1.000000000000e+00 
2.433868377201e+01 1.000000000000e+00 
2.433868377201e+01 1.000000000000e+00 
2.463940122147e+01 1.000000000000e+00 
2.463940122147e+01 1.000000000000e+00 
2.493711149608e+01 1.000000000000e+00 
2.493711149608e+01 1.000000000000e+00 
2.523184466745e+01 1.000000000000e+00 
2.523184466745e+01 1.000000000000e+00 
2.552363050527e+01 1.000000000000e+00 
2.552363050527e+01 1.000000000000e+00 
2.581249848333e+01 1.000000000000e+00 
2.581249848333e+01 1.000000000000e+00 
2.609847778178e+01 1.000000000000e+00 
2.609847778178e+01 1.000000000000e+00 
2.638159728912e+01 1.000000000000e+00 
2.638159728912e+01 1.000000000000e+00 
2.666188560445e+01 1.000000000000e+00 
2.666188560445e+01 1.000000000000e+00 
2.693937103568e+01 1.000000000000e+00 
2.693937103568e+01 1.000000000000e+00 
2.721408160901e+01 1.000000000000e+00 
2.721408160901e+01 1.000000000000e+00 
2.748604507877e+01 1.000000000000e+00 
2.748604507877e+01 1.000000000000e+00 
2.775528891688e+01 1.000000000000e+00 
2.775528891688e+01 1.000000000000e+00 
2.802184031589e+01 1.000000000000e+00 
2.802184031589e+01 1.000000000000e+00 
2.828572620141e+01 1.000000000000e+00 
2.828572620141e+01 1.000000000000e+00 
2.854697322636e+01 1.000000000000e+00 
2.854697322636e+01 1.000000000000e+00 
2.880560778016e+01 1.000000000000e+00 
2.880560778016e+01 1.000000000000e+00 
2.906165599024e+01 1.000000000000e+00 
2.906165599024e+01 1.000000000000e+00 
2.931514371614e+01 1.000000000000e+00 
2.931514371614e+01 1.000000000000e+00 
2.956609656599e+01 1.000000000000e+00 
2.956609656599e+01 1.000000000000e+00 
2.981453988641e+01 1.000000000000e+00 
2.981453988641e+01 1.000000000000e+00 
3.006049877248e+01 1.000000000000e+00 
3.006049877248e+01 1.000000000000e+00 
3.030399807077e+01 1.000000000000e+00 
3.030399807077e+01 1.000000000000e+00 
3.054506237510e+01 1.000000000000e+00 
3.054506237510e+01 1.000000000000e+00 
3.078371603804e+01 1.000000000000e+00 
3.078371603804e+01 1.000000000000e+00 
3.101998316474e+01 1.000000000000e+00 
3.101998316474e+01 1.000000000000e+00 
3.125388761788e+01 1.000000000000e+00 
3.125388761788e+01 1.000000000000e+00 
3.148545302621e+01 1.000000000000e+00 
3.148545302621e+01 1.000000000000e+00 
3.171470278178e+01 1.000000000000e+00 
3.171470278178e+01 1.000000000000e+00 
3.194166004093e+01 1.000000000000e+00 
3.194166004093e+01 1.000000000000e+00 
3.216634772905e+01 1.000000000000e+00 
3.216634772905e+01 1.000000000000e+00 
3.238878854137e+01 1.000000000000e+00 
3.238878854137e+01 1.000000000000e+00 
3.260900494388e+01 1.000000000000e+00 
3.260900494388e+01 1.000000000000e+00 
3.282701918161e+01 1.000000000000e+00 
3.282701918161e+01 1.000000000000e+00 
3.304285327554e+01 1.000000000000e+00 
3.304285327554e+01 1.000000000000e+00 
3.325652902722e+01 1.000000000000e+00 
3.325652902722e+01 1.000000000000e+00 
3.346806802295e+01 1.000000000000e+00 
3.346806802295e+01 1.000000000000e+00 
3.367749163080e+01 1.000000000000e+00 
3.367749163080e+01 1.000000000000e+00 
3.388482100116e+01 1.000000000000e+00 
3.388482100116e+01 1.000000000000e+00 
3.409007707479e+01 1.000000000000e+00 
3.409007707479e+01 1.000000000000e+00 
3.429328059074e+01 1.000000000000e+00 
3.429328059074e+01 1.000000000000e+00 
3.449445207175e+01 1.000000000000e+00 
3.449445207175e+01 1.000000000000e+00 
3.469361183610e+01 1.000000000000e+00 
3.469361183610e+01 1.000000000000e+00 
3.489078000522e+01 1.000000000000e+00 
3.489078000522e+01 1.000000000000e+00 
3.508597649293e+01 1.000000000000e+00 
3.508597649293e+01 1.000000000000e+00 
3.527922101316e+01 1.000000000000e+00 
3.527922101316e+01 1.000000000000e+00 
3.547053308772e+01 1.000000000000e+00 
3.547053308772e+01 1.000000000000e+00 
3.565993204265e+01 1.000000000000e+00 
3.565993204265e+01 1.000000000000e+00 
3.584743700848e+01 1.000000000000e+00 
3.584743700848e+01 1.000000000000e+00 
3.603306692405e+01 1.000000000000e+00 
3.603306692405e+01 1.000000000000e+00 
3.621684054035e+01 1.000000000000e+00 
3.621684054035e+01 1.000000000000e+00 
3.639877642056e+01 1.000000000000e+00 
3.639877642056e+01 1.000000000000e+00 
3.657889293994e+01 1.000000000000e+00 
3.657889293994e+01 1.000000000000e+00 
3.675720829391e+01 1.000000000000e+00 
3.675720829391e+01 1.000000000000e+00 
3.693374049671e+01 1.000000000000e+00 
3.693374049671e+01 1.000000000000e+00 
3.710850737877e+01 1.000000000000e+00 
3.710850737877e+01 1.000000000000e+00 
3.728152658979e+01 1.000000000000e+00 
3.728152658979e+01 1.000000000000e+00 
3.745281560988e+01 1.000000000000e+00 
3.745281560988e+01 1.000000000000e+00 
3.762239174177e+01 1.000000000000e+00 
3.762239174177e+01 1.000000000000e+00 
3.779027211067e+01 1.000000000000e+00 
3.779027211067e+01 1.000000000000e+00 
3.795647367521e+01 1.000000000000e+00 
3.795647367521e+01 1.000000000000e+00 
3.812101322331e+01 1.000000000000e+00 
3.812101322331e+01 1.000000000000e+00 
3.828390737565e+01 1.000000000000e+00 
3.828390737565e+01 1.000000000000e+00 
3.844517258894e+01 1.000000000000e+00 
3.844517258894e+01 1.000000000000e+00 
3.860482515178e+01 1.000000000000e+00 
3.860482515178e+01 1.000000000000e+00 
3.876288118803e+01 1.000000000000e+00 
3.876288118803e+01 1.000000000000e+00 
3.891935666376e+01 1.000000000000e+00 
3.891935666376e+01 1.000000000000e+00 
3.907426738294e+01 1.000000000000e+00 
3.907426738294e+01 1.000000000000e+00 
3.922762899449e+01 1.000000000000e+00 
3.922762899449e+01 1.000000000000e+00 
3.937945699157e+01 1.000000000000e+00 
3.937945699157e+01 1.000000000000e+00 
3.952976670727e+01 1.000000000000e+00 
3.952976670727e+01 1.000000000000e+00 
3.967857332527e+01 1.000000000000e+00 
3.967857332527e+01 1.000000000000e+00 
3.982589187903e+01 1.000000000000e+00 
3.982589187903e+01 1.000000000000e+00 
3.997173724741e+01 1.000000000000e+00 
3.997173724741e+01 1.000000000000e+00 
4.011612416147e+01 1.000000000000e+00 
4.011612416147e+01 1.000000000000e+00 
4.025906720735e+01 1.000000000000e+00 
4.025906720735e+01 1.000000000000e+00 
4.040058082176e+01 1.000000000000e+00 
4.040058082176e+01 1.000000000000e+00 
4.054067929873e+01 1.000000000000e+00 
4.054067929873e+01 1.000000000000e+00 
4.067937679236e+01 1.000000000000e+00 
4.067937679236e+01 1.000000000000e+00 
4.081668731222e+01 1.000000000000e+00 
4.081668731222e+01 1.000000000000e+00 
4.095262472626e+01 1.000000000000e+00 
4.095262472626e+01 1.000000000000e+00 
4.108720276731e+01 1.000000000000e+00 
4.108720276731e+01 1.000000000000e+00 
4.122043502832e+01 1.000000000000e+00 
4.122043502832e+01 1.000000000000e+00 
4.135233496520e+01 1.000000000000e+00 
4.135233496520e+01 1.000000000000e+00 
4.148291590322e+01 1.000000000000e+00 
4.148291590322e+01 1.000000000000e+00 
4.161219103221e+01 1.000000000000e+00 
4.161219103221e+01 1.000000000000e+00 
4.174017340925e+01 1.000000000000e+00 
4.174017340925e+01 1.000000000000e+00 
4.186687596131e+01 1.000000000000e+00 
4.186687596131e+01 1.000000000000e+00 
4.199231148785e+01 1.000000000000e+00 
4.199231148785e+01 1.000000000000e+00 
4.211649265963e+01 1.000000000000e+00 
4.211649265963e+01 1.000000000000e+00 
4.223943201759e+01 1.000000000000e+00 
4.223943201759e+01 1.000000000000e+00 
4.236114198285e+01 1.000000000000e+00 
4.236114198285e+01 1.000000000000e+00 
4.248163485166e+01 1.000000000000e+00 
4.248163485166e+01 1.000000000000e+00 
4.260092279047e+01 1.000000000000e+00 
4.260092279047e+01 1.000000000000e+00 
4.271901784967e+01 1.000000000000e+00 
4.271901784967e+01 1.000000000000e+00 
4.283593195840e+01 1.000000000000e+00 
4.283593195840e+01 1.000000000000e+00 
4.295167692334e+01 1.000000000000e+00 
4.295167692334e+01 1.000000000000e+00 
4.306626443854e+01 1.000000000000e+00 
4.306626443854e+01 1.000000000000e+00 
4.317970608023e+01 1.000000000000e+00 
4.317970608023e+01 1.000000000000e+00 
4.329201330550e+01 1.000000000000e+00 
4.329201330550e+01 1.000000000000e+00 
4.340319745833e+01 1.000000000000e+00 
4.340319745833e+01 1.000000000000e+00 
4.351326977187e+01 1.000000000000e+00 
4.351326977187e+01 1.000000000000e+00 
4.362224136320e+01 1.000000000000e+00 
4.362224136320e+01 1.000000000000e+00 
4.373012323567e+01 1.000000000000e+00 
4.373012323567e+01 1.000000000000e+00 
4.383692628857e+01 1.000000000000e+00 
4.383692628857e+01 1.000000000000e+00 
4.394266131175e+01 1.000000000000e+00 
4.394266131175e+01 1.000000000000e+00 
4.404733898418e+01 1.000000000000e+00 
4.404733898418e+01 1.000000000000e+00 
4.415096987977e+01 1.000000000000e+00 
4.415096987977e+01 1.000000000000e+00 
4.425356446581e+01 1.000000000000e+00 
4.425356446581e+01 1.000000000000e+00 
4.435513310507e+01 1.000000000000e+00 
4.435513310507e+01 1.000000000000e+00 
4.445568605787e+01 1.000000000000e+00 
4.445568605787e+01 1.000000000000e+00 
4.455523348420e+01 1.000000000000e+00 
4.455523348420e+01 1.000000000000e+00 
4.465378543817e+01 1.000000000000e+00 
4.465378543817e+01 1.000000000000e+00 
4.475135187021e+01 1.000000000000e+00 
4.475135187021e+01 1.000000000000e+00 
4.484794263652e+01 1.000000000000e+00 
4.484794263652e+01 1.000000000000e+00 
4.494356749723e+01 1.000000000000e+00 
4.494356749723e+01 1.000000000000e+00 
4.503823611090e+01 1.000000000000e+00 
4.503823611090e+01 1.000000000000e+00 
4.513195803658e+01 1.000000000000e+00 
4.513195803658e+01 1.000000000000e+00 
4.522474274315e+01 1.000000000000e+00 
4.522474274315e+01 1.000000000000e+00 
4.531659960371e+01 1.000000000000e+00 
4.531659960371e+01 1.000000000000e+00 
4.540753789381e+01 1.000000000000e+00 
4.540753789381e+01 1.000000000000e+00 
4.549756680079e+01 1.000000000000e+00 
4.549756680079e+01 1.000000000000e+00 
4.558669541809e+01 1.000000000000e+00 
4.558669541809e+01 1.000000000000e+00 
4.567493274718e+01 1.000000000000e+00 
4.567493274718e+01 1.000000000000e+00 
4.576228770304e+01 1.000000000000e+00 
4.576228770304e+01 1.000000000000e+00 
4.584876911224e+01 1.000000000000e+00 
4.584876911224e+01 1.000000000000e+00 
4.593438570720e+01 1.000000000000e+00 
4.593438570720e+01 1.000000000000e+00 
4.601914613560e+01 1.000000000000e+00 
4.601914613560e+01 1.000000000000e+00 
4.610305896190e+01 1.000000000000e+00 
4.610305896190e+01 1.000000000000e+00 
4.618613265801e+01 1.000000000000e+00 
4.618613265801e+01 1.000000000000e+00 
4.626837561620e+01 1.000000000000e+00 
4.626837561620e+01 1.000000000000e+00 
4.634979614698e+01 1.000000000000e+00 
4.634979614698e+01 1.000000000000e+00 
4.643040247333e+01 1.000000000000e+00 
4.643040247333e+01 1.000000000000e+00 
4.651020273612e+01 1.000000000000e+00 
4.651020273612e+01 1.000000000000e+00 
4.658920499579e+01 1.000000000000e+00 
4.658920499579e+01 1.000000000000e+00 
4.666741723389e+01 1.000000000000e+00 
4.666741723389e+01 1.000000000000e+00 
4.674484735100e+01 1.000000000000e+00 
4.674484735100e+01 1.000000000000e+00 
4.682150316457e+01 1.000000000000e+00 
4.682150316457e+01 1.000000000000e+00 
4.689739241807e+01 1.000000000000e+00 
4.689739241807e+01 1.000000000000e+00 
4.697252277866e+01 1.000000000000e+00 
4.697252277866e+01 1.000000000000e+00 
4.704690183510e+01 1.000000000000e+00 
4.704690183510e+01 1.000000000000e+00 
4.712053710297e+01 1.000000000000e+00 
4.712053710297e+01 1.000000000000e+00 
4.719343601870e+01 1.000000000000e+00 
4.719343601870e+01 1.000000000000e+00 
4.726560594489e+01 1.000000000000e+00 
4.726560594489e+01 1.000000000000e+00 
4.733705417173e+01 1.000000000000e+00 
4.733705417173e+01 1.000000000000e+00 
4.740778791477e+01 1.000000000000e+00 
4.740778791477e+01 1.000000000000e+00 
4.747781432010e+01 1.000000000000e+00 
4.747781432010e+01 1.000000000000e+00 
4.754714046201e+01 1.000000000000e+00 
4.754714046201e+01 1.000000000000e+00 
4.761577334449e+01 1.000000000000e+00 
4.761577334449e+01 1.000000000000e+00 
4.768371989882e+01 1.000000000000e+00 
4.768371989882e+01 1.000000000000e+00 
4.775098698509e+01 1.000000000000e+00 
4.775098698509e+01 1.000000000000e+00 
4.781758140100e+01 1.000000000000e+00 
4.781758140100e+01 1.000000000000e+00 
4.788350987569e+01 1.000000000000e+00 
4.788350987569e+01 1.000000000000e+00 
4.794877906368e+01 1.000000000000e+00 
4.794877906368e+01 1.000000000000e+00 
4.801339555752e+01 1.000000000000e+00 
4.801339555752e+01 1.000000000000e+00 
4.807736588897e+01 1.000000000000e+00 
4.807736588897e+01 1.000000000000e+00 
4.814069651914e+01 1.000000000000e+00 
4.814069651914e+01 1.000000000000e+00 
4.820339383970e+01 1.000000000000e+00 
4.820339383970e+01 1.000000000000e+00 
4.826546418609e+01 1.000000000000e+00 
4.826546418609e+01 1.000000000000e+00 
4.832691382989e+01 1.000000000000e+00 
4.832691382989e+01 1.000000000000e+00 
4.838774897775e+01 1.000000000000e+00 
4.838774897775e+01 1.000000000000e+00 
4.844797577565e+01 1.000000000000e+00 
4.844797577565e+01 1.000000000000e+00 
4.850760030272e+01 1.000000000000e+00 
4.850760030272e+01 1.000000000000e+00 
4.856662858440e+01 1.000000000000e+00 
4.856662858440e+01 1.000000000000e+00 
4.862506658469e+01 1.000000000000e+00 
4.862506658469e+01 1.000000000000e+00 
4.868292020509e+01 1.000000000000e+00 
4.868292020509e+01 1.000000000000e+00 
4.874019528879e+01 1.000000000000e+00 
4.874019528879e+01 1.000000000000e+00 
4.879689762203e+01 1.000000000000e+00 
4.879689762203e+01 1.000000000000e+00 
4.885303293148e+01 1.000000000000e+00 
4.885303293148e+01 1.000000000000e+00 
4.890860688544e+01 1.000000000000e+00 
4.890860688544e+01 1.000000000000e+00 
4.896362510248e+01 1.000000000000e+00 
4.896362510248e+01 1.000000000000e+00 
4.901809313747e+01 1.000000000000e+00 
4.901809313747e+01 1.000000000000e+00 
4.907201649040e+01 1.000000000000e+00 
4.907201649040e+01 1.000000000000e+00 
4.912540061108e+01 1.000000000000e+00 
4.912540061108e+01 1.000000000000e+00 
4.917825088901e+01 1.000000000000e+00 
4.917825088901e+01 1.000000000000e+00 
4.923057266597e+01 1.000000000000e+00 
4.923057266597e+01 1.000000000000e+00 
4.928237122526e+01 1.000000000000e+00 
4.928237122526e+01 1.000000000000e+00 
4.933365179723e+01 1.000000000000e+00 
4.933365179723e+01 1.000000000000e+00 
4.938441956358e+01 1.000000000000e+00 
4.938441956358e+01 1.000000000000e+00 
4.943467965118e+01 1.000000000000e+00 
4.943467965118e+01 1.000000000000e+00 
4.948443714043e+01 1.000000000000e+00 
4.948443714043e+01 1.000000000000e+00 
4.953369705510e+01 1.000000000000e+00 
4.953369705510e+01 1.000000000000e+00 
4.958246437093e+01 1.000000000000e+00 
4.958246437093e+01 1.000000000000e+00 
4.963074401274e+01 1.000000000000e+00 
4.963074401274e+01 1.000000000000e+00 
4.967854085565e+01 1.000000000000e+00 
4.967854085565e+01 1.000000000000e+00 
4.972585973323e+01 1.000000000000e+00 
4.972585973323e+01 1.000000000000e+00 
4.977270542373e+01 1.000000000000e+00 
4.977270542373e+01 1.000000000000e+00 
4.981908265477e+01 1.000000000000e+00 
4.981908265477e+01 1.000000000000e+00 
4.986499611176e+01 1.000000000000e+00 
4.986499611176e+01 1.000000000000e+00 
4.991045043505e+01 1.000000000000e+00 
4.991045043505e+01 1.000000000000e+00 
4.995545021718e+01 1.000000000000e+00 
4.995545021718e+01 1.000000000000e+00 
5.000000000000e+01 1.000000000000e+00 
5.000000000000e+01 1.000000000000e+00 
 TITLE = "Profiles along polylines"
 VARIABLES = "DIST" "SATURATION1" 
 ZONE T="TIME=1.797693134862e+308"
0.000000000000e+00 1.000000000000e+00 
0.000000000000e+00 1.000000000000e+00 
5.441042851206e-01 1.000000000000e+00 
5.441042851206e-01 1.000000000000e+00 
1.082767527447e+00 1.000000000000e+00 
1.082767527447e+00 1.000000000000e+00 
1.616044136177e+00 1.000000000000e+00 
1.616044136177e+00 1.000000000000e+00 
2.143987978862e+00 1.000000000000e+00 
2.143987978862e+00 1.000000000000e+00 
2.666652384904e+00 1.000000000000e+00 
2.666652384904e+00 1.000000000000e+00 
3.184090148728e+00 1.000000000000e+00 
3.184090148728e+00 1.000000000000e+00 
3.696353533103e+00 1.000000000000e+00 
3.696353533103e+00 1.000000000000e+00 
4.203494283380e+00 1.000000000000e+00 
4.203494283380e+00 1.000000000000e+00 
4.705563626669e+00 1.000000000000e+00 
4.705563626669e+00 1.000000000000e+00 
5.202612278494e+00 1.000000000000e+00 
5.202612278494e+00 1.000000000000e+00 
5.694690445536e+00 1.000000000000e+00 
5.694690445536e+00 1.000000000000e+00 
6.181847828274e+00 1.000000000000e+00 
6.181847828274e+00 1.000000000000e+00 
6.664133634867e+00 1.000000000000e+00 
6.664133634867e+00 1.000000000000e+00 
7.141596583478e+00 1.000000000000e+00 
7.141596583478e+00 1.000000000000e+00 
7.614284904664e+00 1.000000000000e+00 
7.614284904664e+00 1.000000000000e+00 
8.082246343617e+00 1.000000000000e+00 
8.082246343617e+00 1.000000000000e+00 
8.545528166141e+00 1.000000000000e+00 
8.545528166141e+00 1.000000000000e+00 
9.004177171908e+00 1.000000000000e+00 
9.004177171908e+00 1.000000000000e+00 
9.458239688845e+00 1.000000000000e+00 
9.458239688845e+00 1.000000000000e+00 
9.907761578910e+00 1.000000000000e+00 
9.907761578910e+00 1.000000000000e+00 
1.035278825100e+01 1.000000000000e+00 
1.035278825100e+01 1.000000000000e+00 
1.079336465513e+01 1.000000000000e+00 
1.079336465513e+01 1.000000000000e+00 
1.122953529539e+01 1.000000000000e+00 
1.122953529539e+01 1.000000000000e+00 
1.166134423122e+01 1.000000000000e+00 
1.166134423122e+01 1.000000000000e+00 
1.208883507532e+01 1.000000000000e+00 
1.208883507532e+01 1.000000000000e+00 
1.251205100982e+01 1.000000000000e+00 
1.251205100982e+01 1.000000000000e+00 
1.293103478751e+01 1.000000000000e+00 
1.293103478751e+01 1.000000000000e+00 
1.334582872926e+01 1.000000000000e+00 
1.334582872926e+01 1.000000000000e+00 
1.375647472886e+01 1.000000000000e+00 
1.375647472886e+01 1.000000000000e+00 
1.416301426525e+01 1.000000000000e+00 
1.416301426525e+01 1.000000000000e+00 
1.456548840709e+01 1.000000000000e+00 
1.456548840709e+01 1.000000000000e+00 
1.496393780979e+01 1.000000000000e+00 
1.496393780979e+01 1.000000000000e+00 
1.535840272005e+01 1.000000000000e+00 
1.535840272005e+01 1.000000000000e+00 
1.574892298024e+01 1.000000000000e+00 
1.574892298024e+01 1.000000000000e+00 
1.613553803648e+01 1.000000000000e+00 
1.613553803648e+01 1.000000000000e+00 
1.651828694278e+01 1.000000000000e+00 
1.651828694278e+01 1.000000000000e+00 
1.689720836151e+01 1.000000000000e+00 
1.689720836151e+01 1.000000000000e+00 
1.727234056739e+01 1.000000000000e+00 
1.727234056739e+01 1.000000000000e+00 
1.764372145159e+01 1.000000000000e+00 
1.764372145159e+01 1.000000000000e+00 
1.801138852555e+01 1.000000000000e+00 
1.801138852555e+01 1.000000000000e+00 
1.837537892864e+01 1.000000000000e+00 
1.837537892864e+01 1.000000000000e+00 
1.873572942807e+01 1.000000000000e+00 
1.873572942807e+01 1.000000000000e+00 
1.909247642267e+01 9.466526933806e-01 
1.909247642267e+01 9.527192776166e-01 
1.944565594642e+01 8.714514353201e-01 
1.944565594642e+01 8.765529112167e-01 
1.979530367209e+01 8.102096111282e-01 
1.979530367209e+01 8.143380235353e-01 
2.014145492208e+01 7.611662640271e-01 
2.014145492208e+01 7.645190680832e-01 
2.048414466058e+01 7.213952423248e-01 
2.048414466058e+01 7.241659063707e-01 
2.082340750076e+01 6.885410024011e-01 
2.082340750076e+01 6.908739234386e-01 
2.115927771161e+01 6.609093978271e-01 
2.115927771161e+01 6.629075405736e-01 
2.149178922127e+01 6.372982381075e-01 
2.149178922127e+01 6.390352102791e-01 
2.182097561621e+01 6.168442462302e-01 
2.182097561621e+01 6.183735221403e-01 
2.214687014446e+01 5.989157361308e-01 
2.214687014446e+01 6.002769290777e-01 
2.246950572974e+01 5.830411691280e-01 
2.246950572974e+01 5.842642019508e-01 
2.278891495927e+01 5.688617725894e-01 
2.278891495927e+01 5.699696651894e-01 
2.310513009435e+01 5.560997340297e-01 
2.310513009435e+01 5.571104942565e-01 
2.341818308041e+01 5.445364771375e-01 
2.341818308041e+01 5.454644066485e-01 
2.372810553851e+01 5.348541566681e-01 
2.372810553851e+01 5.339975437743e-01 
2.403492877185e+01 5.251365566534e-01 
2.403492877185e+01 5.243418759426e-01 
2.433868377201e+01 5.154540830013e-01 
2.433868377201e+01 5.161945654796e-01 
2.463940122147e+01 5.072387706084e-01 
2.463940122147e+01 5.079314928672e-01 
2.493711149608e+01 4.996163180686e-01 
2.493711149608e+01 5.002666883553e-01 
2.523184466745e+01 4.925196898909e-01 
2.523184466745e+01 4.931322892156e-01 
2.552363050527e+01 4.858919970530e-01 
2.552363050527e+01 4.864707352088e-01 
2.581249848333e+01 4.796846093484e-01 
2.581249848333e+01 4.802328464856e-01 
2.609847778178e+01 4.738556783483e-01 
2.609847778178e+01 4.743763207110e-01 
2.638159728912e+01 4.683689698495e-01 
2.638159728912e+01 4.688645459049e-01 
2.666188560445e+01 4.631929322729e-01 
2.666188560445e+01 4.636656537992e-01 
2.693937103568e+01 4.587517584359e-01 
2.693937103568e+01 4.582999469190e-01 
2.721408160901e+01 4.540983385267e-01 
2.721408160901e+01 4.536657194477e-01 
2.748604507877e+01 4.492687824099e-01 
2.748604507877e+01 4.496837327875e-01 
2.775528891688e+01 4.450900860216e-01 
2.775528891688e+01 4.454887249858e-01 
2.802184031589e+01 4.411126588330e-01 
2.802184031589e+01 4.414962000179e-01 
2.828572620141e+01 4.373213246742e-01 
2.828572620141e+01 4.376908571438e-01 
2.854697322636e+01 4.337024655384e-01 
2.854697322636e+01 4.340589698562e-01 
2.880560778016e+01 4.302438214536e-01 
2.880560778016e+01 4.305881832821e-01 
2.906165599024e+01 4.269343209833e-01 
2.906165599024e+01 4.272673426523e-01 
2.931514371614e+01 4.237639369762e-01 
2.931514371614e+01 4.240863473688e-01 
2.956609656599e+01 4.207235628995e-01 
2.956609656599e+01 4.210360259372e-01 
2.981453988641e+01 4.178049069089e-01 
2.981453988641e+01 4.181080288652e-01 
3.006049877248e+01 4.150004002369e-01 
3.006049877248e+01 4.152947360659e-01 
3.030399807077e+01 4.123031179409e-01 
3.030399807077e+01 4.125891767743e-01 
3.054506237510e+01 4.097067100977e-01 
3.054506237510e+01 4.099849600363e-01 
3.078371603804e+01 4.072053416261e-01 
3.078371603804e+01 4.074762139311e-01 
3.101998316474e+01 4.047936398083e-01 
3.101998316474e+01 4.050575325784e-01 
3.125388761788e+01 4.024666481074e-01 
3.125388761788e+01 4.027239295158e-01 
3.148545302621e+01 4.002197854692e-01 
3.148545302621e+01 4.004707966207e-01 
3.171470278178e+01 3.980488104907e-01 
3.171470278178e+01 3.982938679514e-01 
3.194166004093e+01 3.959497896541e-01 
3.194166004093e+01 3.961891876963e-01 
3.216634772905e+01 3.939190690901e-01 
3.216634772905e+01 3.941530816905e-01 
3.238878854137e+01 3.919532494791e-01 
3.238878854137e+01 3.921821321010e-01 
3.260900494388e+01 3.900491636546e-01 
3.260900494388e+01 3.902731548423e-01 
3.282701918161e+01 3.882038565121e-01 
3.282701918161e+01 3.884231793190e-01 
3.304285327554e+01 3.864145670939e-01 
3.304285327554e+01 3.866294303656e-01 
3.325652902722e+01 3.846787124340e-01 
3.325652902722e+01 3.848893119635e-01 
3.346806802295e+01 3.829938730199e-01 
3.346806802295e+01 3.832003925888e-01 
3.367749163080e+01 3.813577797357e-01 
3.367749163080e+01 3.815603920558e-01 
3.388482100116e+01 3.797683020371e-01 
3.388482100116e+01 3.799671696023e-01 
3.409007707479e+01 3.782234371872e-01 
3.409007707479e+01 3.784187130468e-01 
3.429328059074e+01 3.767213004992e-01 
3.429328059074e+01 3.769131289596e-01 
3.449445207175e+01 3.752601166313e-01 
3.449445207175e+01 3.754486338954e-01 
3.469361183610e+01 3.738382114785e-01 
3.469361183610e+01 3.740235462284e-01 
3.489078000522e+01 3.724540048114e-01 
3.489078000522e+01 3.726362787400e-01 
3.508597649293e+01 3.711060036837e-01 
3.508597649293e+01 3.712853319812e-01 
3.527922101316e+01 3.697927962780e-01 
3.527922101316e+01 3.699692880772e-01 
3.547053308772e+01 3.685130462728e-01 
3.547053308772e+01 3.686868050576e-01 
3.565993204265e+01 3.672654877518e-01 
3.565993204265e+01 3.674366117321e-01 
3.584743700848e+01 3.660489205049e-01 
3.584743700848e+01 3.662175029615e-01 
3.603306692405e+01 3.648622056857e-01 
3.603306692405e+01 3.650283352879e-01 
3.621684054035e+01 3.637042618136e-01 
3.621684054035e+01 3.638680229119e-01 
3.639877642056e+01 3.625740611139e-01 
3.639877642056e+01 3.627355340101e-01 
3.657889293994e+01 3.614706261401e-01 
3.657889293994e+01 3.616298873371e-01 
3.675720829391e+01 3.603930266052e-01 
3.675720829391e+01 3.605501490375e-01 
3.693374049671e+01 3.593403765064e-01 
3.693374049671e+01 3.594954297545e-01 
3.710850737877e+01 3.583118314703e-01 
3.710850737877e+01 3.584648819589e-01 
3.728152658979e+01 3.573065862599e-01 
3.728152658979e+01 3.574576974419e-01 
3.745281560988e+01 3.563238724139e-01 
3.745281560988e+01 3.564731049415e-01 
3.762239174177e+01 3.553629561629e-01 
3.762239174177e+01 3.555103680466e-01 
3.779027211067e+01 3.544231364471e-01 
3.779027211067e+01 3.545687832039e-01 
3.795647367521e+01 3.535037430121e-01 
3.795647367521e+01 3.536476778034e-01 
3.812101322331e+01 3.526041347166e-01 
3.812101322331e+01 3.527464084768e-01 
3.828390737565e+01 3.517236979137e-01 
3.828390737565e+01 3.518643594705e-01 
3.844517258894e+01 3.508618449410e-01 
3.844517258894e+01 3.510009411276e-01 
3.860482515178e+01 3.500180127501e-01 
3.860482515178e+01 3.501555885101e-01 
3.876288118803e+01 3.491916615859e-01 
3.876288118803e+01 3.493277600718e-01 
3.891935666376e+01 3.483822737323e-01 
3.891935666376e+01 3.485169363971e-01 
3.907426738294e+01 3.475893523958e-01 
3.907426738294e+01 3.477226190796e-01 
3.922762899449e+01 3.468124206013e-01 
3.922762899449e+01 3.469443296122e-01 
3.937945699157e+01 3.460510201963e-01 
3.937945699157e+01 3.461816083860e-01 
3.952976670727e+01 3.453047109326e-01 
3.952976670727e+01 3.454340137684e-01 
3.967857332527e+01 3.445730695327e-01 