 TITLE = "Profiles along polylines"
 VARIABLES = "DIST" "SATURATION1" 
 ZONE T="TIME=0.000000000000e+00"
0.000000000000e+00 1.000000000000e+00 
0.000000000000e+00 1.000000000000e+00 
5.441042851206e-01 1.000000000000e+00 
5.441042851206e-01 1.000000000000e+00 
1.082767527447e+00 1.000000000000e+00 
1.082767527447e+00 1.000000000000e+00 
1.616044136177e+00 1.000000000000e+00 
1.616044136177e+00 1.000000000000e+00 
2.143987978862e+00 1.000000000000e+00 
2.143987978862e+00 1.000000000000e+00 
2.666652384904e+00 1.000000000000e+00 
2.666652384904e+00 1.000000000000e+00 
3.184090148728e+00 1.000000000000e+00 
3.184090148728e+00 1.000000000000e+00 
3.696353533103e+00 1.000000000000e+00 
3.696353533103e+00 1.000000000000e+00 
4.203494283380e+00 1.000000000000e+00 
4.203494283380e+00 1.000000000000e+00 
4.705563626669e+00 1.000000000000e+00 
4.705563626669e+00 1.000000000000e+00 
5.202612278494e+00 1.000000000000e+00 
5.202612278494e+00 1.000000000000e+00 
5.694690445536e+00 1.000000000000e+00 
5.694690445536e+00 1.000000000000e+00 
6.181847828274e+00 1.000000000000e+00 
6.181847828274e+00 1.000000000000e+00 
6.664133634867e+00 1.000000000000e+00 
6.664133634867e+00 1.000000000000e+00 
7.141596583478e+00 1.000000000000e+00 
7.141596583478e+00 1.000000000000e+00 
7.614284904664e+00 1.000000000000e+00 
7.614284904664e+00 1.000000000000e+00 
8.082246343617e+00 1.000000000000e+00 
8.082246343617e+00 1.000000000000e+00 
8.545528166141e+00 1.000000000000e+00 
8.545528166141e+00 1.000000000000e+00 
9.004177171908e+00 1.000000000000e+00 
9.004177171908e+00 1.000000000000e+00 
9.458239688845e+00 1.000000000000e+00 
9.458239688845e+00 1.000000000000e+00 
9.907761578910e+00 1.000000000000e+00 
9.907761578910e+00 1.000000000000e+00 
1.035278825100e+01 1.000000000000e+00 
1.035278825100e+01 1.000000000000e+00 
1.079336465513e+01 1.000000000000e+00 
1.079336465513e+01 1.000000000000e+00 
1.122953529539e+01 1.000000000000e+00 
1.122953529539e+01 1.000000000000e+00 
1.166134423122e+01 1.000000000000e+00 
1.166134423122e+01 1.000000000000e+00 
1.208883507532e+01 1.000000000000e+00 
1.208883507532e+01 1.000000000000e+00 
1.251205100982e+01 1.000000000000e+00 
1.251205100982e+01 1.000000000000e+00 
1.293103478751e+01 1.000000000000e+00 
1.293103478751e+01 1.000000000000e+00 
1.334582872926e+01 1.000000000000e+00 
1.334582872926e+01 1.000000000000e+00 
1.375647472886e+01 1.000000000000e+00 
1.375647472886e+01 1.000000000000e+00 
1.416301426525e+01 1.000000000000e+00 
1.416301426525e+01 1.000000000000e+00 
1.456548840709e+01 1.000000000000e+00 
1.456548840709e+01 1.000000000000e+00 
1.496393780979e+01 1.000000000000e+00 
1.496393780979e+01 1.000000000000e+00 
1.535840272005e+01 1.000000000000e+00 
1.535840272005e+01 1.000000000000e+00 
1.574892298024e+01 1.000000000000e+00 
1.574892298024e+01 1.000000000000e+00 
1.613553803648e+01 1.000000000000e+00 
1.613553803648e+01 1.000000000000e+00 
1.651828694278e+01 1.000000000000e+00 
1.651828694278e+01 1.000000000000e+00 
1.689720836151e+01 1.000000000000e+00 
1.689720836151e+01 1.000000000000e+00 
1.727234056739e+01 1.000000000000e+00 
1.727234056739e+01 1.000000000000e+00 
1.764372145159e+01 1.000000000000e+00 
1.764372145159e+01 1.000000000000e+00 
1.801138852555e+01 1.000000000000e+00 
1.801138852555e+01 1.000000000000e+00 
1.837537892864e+01 1.000000000000e+00 
1.837537892864e+01 1.000000000000e+00 
1.873572942807e+01 1.000000000000e+00 
1.873572942807e+01 1.000000000000e+00 
1.909247642267e+01 1.000000000000e+00 
1.909247642267e+01 1.000000000000e+00 
1.944565594642e+01 1.000000000000e+00 
1.944565594642e+01 1.000000000000e+00 
1.979530367209e+01 1.000000000000e+00 
1.979530367209e+01 1.000000000000e+00 
2.014145492208e+01 1.000000000000e+00 
2.014145492208e+01 1.000000000000e+00 
2.048414466058e+01 1.000000000000e+00 
2.048414466058e+01 1.000000000000e+00 
2.082340750076e+01 1.000000000000e+00 
2.082340750076e+01 1.000000000000e+00 
2.115927771161e+01 1.000000000000e+00 
2.115927771161e+01 1.000000000000e+00 
2.149178922127e+01 1.000000000000e+00 
2.149178922127e+01 1.000000000000e+00 
2.182097561621e+01 1.000000000000e+00 
2.182097561621e+01 1.000000000000e+00 
2.214687014446e+01 1.000000000000e+00 
2.214687014446e+01 1.000000000000e+00 
2.246950572974e+01 1.000000000000e+00 
2.246950572974e+01 1.000000000000e+00 
2.278891495927e+01 1.000000000000e+00 
2.278891495927e+01 1.000000000000e+00 
2.310513009435e+01 1.000000000000e+00 
2.310513009435e+01 1.000000000000e+00 
2.341818308041e+01 1.000000000000e+00 
2.341818308041e+01 1.000000000000e+00 
2.372810553851e+01 1.000000000000e+00 
2.372810553851e+01 1.000000000000e+00 
2.403492877185e+01 1.000000000000e+00 
2.403492877185e+01 1.000000000000e+00 
2.433868377201e+01 1.000000000000e+00 
2.433868377201e+01 1.000000000000e+00 
2.463940122147e+01 1.000000000000e+00 
2.463940122147e+01 1.000000000000e+00 
2.493711149608e+01 1.000000000000e+00 
2.493711149608e+01 1.000000000000e+00 
2.523184466745e+01 1.000000000000e+00 
2.523184466745e+01 1.000000000000e+00 
2.552363050527e+01 1.000000000000e+00 
2.552363050527e+01 1.000000000000e+00 
2.581249848333e+01 1.000000000000e+00 
2.581249848333e+01 1.000000000000e+00 
2.609847778178e+01 1.000000000000e+00 
2.609847778178e+01 1.000000000000e+00 
2.638159728912e+01 1.000000000000e+00 
2.638159728912e+01 1.000000000000e+00 
2.666188560445e+01 1.000000000000e+00 
2.666188560445e+01 1.000000000000e+00 
2.693937103568e+01 1.000000000000e+00 
2.693937103568e+01 1.000000000000e+00 
2.721408160901e+01 1.000000000000e+00 
2.721408160901e+01 1.000000000000e+00 
2.748604507877e+01 1.000000000000e+00 
2.748604507877e+01 1.000000000000e+00 
2.775528891688e+01 1.000000000000e+00 
2.775528891688e+01 1.000000000000e+00 
2.802184031589e+01 1.000000000000e+00 
2.802184031589e+01 1.000000000000e+00 
2.828572620141e+01 1.000000000000e+00 
2.828572620141e+01 1.000000000000e+00 
2.854697322636e+01 1.000000000000e+00 
2.854697322636e+01 1.000000000000e+00 
2.880560778016e+01 1.000000000000e+00 
2.880560778016e+01 1.000000000000e+00 
2.906165599024e+01 1.000000000000e+00 
2.906165599024e+01 1.000000000000e+00 
2.931514371614e+01 1.000000000000e+00 
2.931514371614e+01 1.000000000000e+00 
2.956609656599e+01 1.000000000000e+00 
2.956609656599e+01 1.000000000000e+00 
2.981453988641e+01 1.000000000000e+00 
2.981453988641e+01 1.000000000000e+00 
3.006049877248e+01 1.000000000000e+00 
3.006049877248e+01 1.000000000000e+00 
3.030399807077e+01 1.000000000000e+00 
3.030399807077e+01 1.000000000000e+00 
3.054506237510e+01 1.000000000000e+00 
3.054506237510e+01 1.000000000000e+00 
3.078371603804e+01 1.000000000000e+00 
3.078371603804e+01 1.000000000000e+00 
3.101998316474e+01 1.000000000000e+00 
3.101998316474e+01 1.000000000000e+00 
3.125388761788e+01 1.000000000000e+00 
3.125388761788e+01 1.000000000000e+00 
3.148545302621e+01 1.000000000000e+00 
3.148545302621e+01 1.000000000000e+00 
3.171470278178e+01 1.000000000000e+00 
3.171470278178e+01 1.000000000000e+00 
3.194166004093e+01 1.000000000000e+00 
3.194166004093e+01 1.000000000000e+00 
3.216634772905e+01 1.000000000000e+00 
3.216634772905e+01 1.000000000000e+00 
3.238878854137e+01 1.000000000000e+00 
3.238878854137e+01 1.000000000000e+00 
3.260900494388e+01 1.000000000000e+00 
3.260900494388e+01 1.000000000000e+00 
3.282701918161e+01 1.000000000000e+00 
3.282701918161e+01 1.000000000000e+00 
3.304285327554e+01 1.000000000000e+00 
3.304285327554e+01 1.000000000000e+00 
3.325652902722e+01 1.000000000000e+00 
3.325652902722e+01 1.000000000000e+00 
3.346806802295e+01 1.000000000000e+00 
3.346806802295e+01 1.000000000000e+00 
3.367749163080e+01 1.000000000000e+00 
3.367749163080e+01 1.000000000000e+00 
3.388482100116e+01 1.000000000000e+00 
3.388482100116e+01 1.000000000000e+00 
3.409007707479e+01 1.000000000000e+00 
3.409007707479e+01 1.000000000000e+00 
3.429328059074e+01 1.000000000000e+00 
3.429328059074e+01 1.000000000000e+00 
3.449445207175e+01 1.000000000000e+00 
3.449445207175e+01 1.000000000000e+00 
3.469361183610e+01 1.000000000000e+00 
3.469361183610e+01 1.000000000000e+00 
3.489078000522e+01 1.000000000000e+00 
3.489078000522e+01 1.000000000000e+00 
3.508597649293e+01 1.000000000000e+00 
3.508597649293e+01 1.000000000000e+00 
3.527922101316e+01 1.000000000000e+00 
3.527922101316e+01 1.000000000000e+00 
3.547053308772e+01 1.000000000000e+00 
3.547053308772e+01 1.000000000000e+00 
3.565993204265e+01 1.000000000000e+00 
3.565993204265e+01 1.000000000000e+00 
3.584743700848e+01 1.000000000000e+00 
3.584743700848e+01 1.000000000000e+00 
3.603306692405e+01 1.000000000000e+00 
3.603306692405e+01 1.000000000000e+00 
3.621684054035e+01 1.000000000000e+00 
3.621684054035e+01 1.000000000000e+00 
3.639877642056e+01 1.000000000000e+00 
3.639877642056e+01 1.000000000000e+00 
3.657889293994e+01 1.000000000000e+00 
3.657889293994e+01 1.000000000000e+00 
3.675720829391e+01 1.000000000000e+00 
3.675720829391e+01 1.000000000000e+00 
3.693374049671e+01 1.000000000000e+00 
3.693374049671e+01 1.000000000000e+00 
3.710850737877e+01 1.000000000000e+00 
3.710850737877e+01 1.000000000000e+00 
3.728152658979e+01 1.000000000000e+00 
3.728152658979e+01 1.000000000000e+00 
3.745281560988e+01 1.000000000000e+00 
3.745281560988e+01 1.000000000000e+00 
3.762239174177e+01 1.000000000000e+00 
3.762239174177e+01 1.000000000000e+00 
3.779027211067e+01 1.000000000000e+00 
3.779027211067e+01 1.000000000000e+00 
3.795647367521e+01 1.000000000000e+00 
3.795647367521e+01 1.000000000000e+00 
3.812101322331e+01 1.000000000000e+00 
3.812101322331e+01 1.000000000000e+00 
3.828390737565e+01 1.000000000000e+00 
3.828390737565e+01 1.000000000000e+00 
3.844517258894e+01 1.000000000000e+00 
3.844517258894e+01 1.000000000000e+00 
3.860482515178e+01 1.000000000000e+00 
3.860482515178e+01 1.000000000000e+00 
3.876288118803e+01 1.000000000000e+00 
3.876288118803e+01 1.000000000000e+00 
3.891935666376e+01 1.000000000000e+00 
3.891935666376e+01 1.000000000000e+00 
3.907426738294e+01 1.000000000000e+00 
3.907426738294e+01 1.000000000000e+00 
3.922762899449e+01 1.000000000000e+00 
3.922762899449e+01 1.000000000000e+00 
3.937945699157e+01 1.000000000000e+00 
3.937945699157e+01 1.000000000000e+00 
3.952976670727e+01 1.000000000000e+00 
3.952976670727e+01 1.000000000000e+00 
3.967857332527e+01 1.000000000000e+00 
3.967857332527e+01 1.000000000000e+00 
3.982589187903e+01 1.000000000000e+00 
3.982589187903e+01 1.000000000000e+00 
3.997173724741e+01 1.000000000000e+00 
3.997173724741e+01 1.000000000000e+00 
4.011612416147e+01 1.000000000000e+00 
4.011612416147e+01 1.000000000000e+00 
4.025906720735e+01 1.000000000000e+00 
4.025906720735e+01 1.000000000000e+00 
4.040058082176e+01 1.000000000000e+00 
4.040058082176e+01 1.000000000000e+00 
4.054067929873e+01 1.000000000000e+00 
4.054067929873e+01 1.000000000000e+00 
4.067937679236e+01 1.000000000000e+00 
4.067937679236e+01 1.000000000000e+00 
4.081668731222e+01 1.000000000000e+00 
4.081668731222e+01 1.000000000000e+00 
4.095262472626e+01 1.000000000000e+00 
4.095262472626e+01 1.000000000000e+00 
4.108720276731e+01 1.000000000000e+00 
4.108720276731e+01 1.000000000000e+00 
4.122043502832e+01 1.000000000000e+00 
4.122043502832e+01 1.000000000000e+00 
4.135233496520e+01 1.000000000000e+00 
4.135233496520e+01 1.000000000000e+00 
4.148291590322e+01 1.000000000000e+00 
4.148291590322e+01 1.000000000000e+00 
4.161219103221e+01 1.000000000000e+00 
4.161219103221e+01 1.000000000000e+00 
4.174017340925e+01 1.000000000000e+00 
4.174017340925e+01 1.000000000000e+00 
4.186687596131e+01 1.000000000000e+00 
4.186687596131e+01 1.000000000000e+00 
4.199231148785e+01 1.000000000000e+00 
4.199231148785e+01 1.000000000000e+00 
4.211649265963e+01 1.000000000000e+00 
4.211649265963e+01 1.000000000000e+00 
4.223943201759e+01 1.000000000000e+00 
4.223943201759e+01 1.000000000000e+00 
4.236114198285e+01 1.000000000000e+00 
4.236114198285e+01 1.000000000000e+00 
4.248163485166e+01 1.000000000000e+00 
4.248163485166e+01 1.000000000000e+00 
4.260092279047e+01 1.000000000000e+00 
4.260092279047e+01 1.000000000000e+00 
4.271901784967e+01 1.000000000000e+00 
4.271901784967e+01 1.000000000000e+00 
4.283593195840e+01 1.000000000000e+00 
4.283593195840e+01 1.000000000000e+00 
4.295167692334e+01 1.000000000000e+00 
4.295167692334e+01 1.000000000000e+00 
4.306626443854e+01 1.000000000000e+00 
4.306626443854e+01 1.000000000000e+00 
4.317970608023e+01 1.000000000000e+00 
4.317970608023e+01 1.000000000000e+00 
4.329201330550e+01 1.000000000000e+00 
4.329201330550e+01 1.000000000000e+00 
4.340319745833e+01 1.000000000000e+00 
4.340319745833e+01 1.000000000000e+00 
4.351326977187e+01 1.000000000000e+00 
4.351326977187e+01 1.000000000000e+00 
4.362224136320e+01 1.000000000000e+00 
4.362224136320e+01 1.000000000000e+00 
4.373012323567e+01 1.000000000000e+00 
4.373012323567e+01 1.000000000000e+00 
4.383692628857e+01 1.000000000000e+00 
4.383692628857e+01 1.000000000000e+00 
4.394266131175e+01 1.000000000000e+00 
4.394266131175e+01 1.000000000000e+00 
4.404733898418e+01 1.000000000000e+00 
4.404733898418e+01 1.000000000000e+00 
4.415096987977e+01 1.000000000000e+00 
4.415096987977e+01 1.000000000000e+00 
4.425356446581e+01 1.000000000000e+00 
4.425356446581e+01 1.000000000000e+00 
4.435513310507e+01 1.000000000000e+00 
4.435513310507e+01 1.000000000000e+00 
4.445568605787e+01 1.000000000000e+00 
4.445568605787e+01 1.000000000000e+00 
4.455523348420e+01 1.000000000000e+00 
4.455523348420e+01 1.000000000000e+00 
4.465378543817e+01 1.000000000000e+00 
4.465378543817e+01 1.000000000000e+00 
4.475135187021e+01 1.000000000000e+00 
4.475135187021e+01 1.000000000000e+00 
4.484794263652e+01 1.000000000000e+00 
4.484794263652e+01 1.000000000000e+00 
4.494356749723e+01 1.000000000000e+00 
4.494356749723e+01 1.000000000000e+00 
4.503823611090e+01 1.000000000000e+00 
4.503823611090e+01 1.000000000000e+00 
4.513195803658e+01 1.000000000000e+00 
4.513195803658e+01 1.000000000000e+00 
4.522474274315e+01 1.000000000000e+00 
4.522474274315e+01 1.000000000000e+00 
4.531659960371e+01 1.000000000000e+00 
4.531659960371e+01 1.000000000000e+00 
4.540753789381e+01 1.000000000000e+00 
4.540753789381e+01 1.000000000000e+00 
4.549756680079e+01 1.000000000000e+00 
4.549756680079e+01 1.000000000000e+00 
4.558669541809e+01 1.000000000000e+00 
4.558669541809e+01 1.000000000000e+00 
4.567493274718e+01 1.000000000000e+00 
4.567493274718e+01 1.000000000000e+00 
4.576228770304e+01 1.000000000000e+00 
4.576228770304e+01 1.000000000000e+00 
4.584876911224e+01 1.000000000000e+00 
4.584876911224e+01 1.000000000000e+00 
4.593438570720e+01 1.000000000000e+00 
4.593438570720e+01 1.000000000000e+00 
4.601914613560e+01 1.000000000000e+00 
4.601914613560e+01 1.000000000000e+00 
4.610305896190e+01 1.000000000000e+00 
4.610305896190e+01 1.000000000000e+00 
4.618613265801e+01 1.000000000000e+00 
4.618613265801e+01 1.000000000000e+00 
4.626837561620e+01 1.000000000000e+00 
4.626837561620e+01 1.000000000000e+00 
4.634979614698e+01 1.000000000000e+00 
4.634979614698e+01 1.000000000000e+00 
4.643040247333e+01 1.000000000000e+00 
4.643040247333e+01 1.000000000000e+00 
4.651020273612e+01 1.000000000000e+00 
4.651020273612e+01 1.000000000000e+00 
4.658920499579e+01 1.000000000000e+00 
4.658920499579e+01 1.000000000000e+00 
4.666741723389e+01 1.000000000000e+00 
4.666741723389e+01 1.000000000000e+00 
4.674484735100e+01 1.000000000000e+00 
4.674484735100e+01 1.000000000000e+00 
4.682150316457e+01 1.000000000000e+00 
4.682150316457e+01 1.000000000000e+00 
4.689739241807e+01 1.000000000000e+00 
4.689739241807e+01 1.000000000000e+00 
4.697252277866e+01 1.000000000000e+00 
4.697252277866e+01 1.000000000000e+00 
4.704690183510e+01 1.000000000000e+00 
4.704690183510e+01 1.000000000000e+00 
4.712053710297e+01 1.000000000000e+00 
4.712053710297e+01 1.000000000000e+00 
4.719343601870e+01 1.000000000000e+00 
4.719343601870e+01 1.000000000000e+00 
4.726560594489e+01 1.000000000000e+00 
4.726560594489e+01 1.000000000000e+00 
4.733705417173e+01 1.000000000000e+00 
4.733705417173e+01 1.000000000000e+00 
4.740778791477e+01 1.000000000000e+00 
4.740778791477e+01 1.000000000000e+00 
4.747781432010e+01 1.000000000000e+00 
4.747781432010e+01 1.000000000000e+00 
4.754714046201e+01 1.000000000000e+00 
4.754714046201e+01 1.000000000000e+00 
4.761577334449e+01 1.000000000000e+00 
4.761577334449e+01 1.000000000000e+00 
4.768371989882e+01 1.000000000000e+00 
4.768371989882e+01 1.000000000000e+00 
4.775098698509e+01 1.000000000000e+00 
4.775098698509e+01 1.000000000000e+00 
4.781758140100e+01 1.000000000000e+00 
4.781758140100e+01 1.000000000000e+00 
4.788350987569e+01 1.000000000000e+00 
4.788350987569e+01 1.000000000000e+00 
4.794877906368e+01 1.000000000000e+00 
4.794877906368e+01 1.000000000000e+00 
4.801339555752e+01 1.000000000000e+00 
4.801339555752e+01 1.000000000000e+00 
4.807736588897e+01 1.000000000000e+00 
4.807736588897e+01 1.000000000000e+00 
4.814069651914e+01 1.000000000000e+00 
4.814069651914e+01 1.000000000000e+00 
4.820339383970e+01 1.000000000000e+00 
4.820339383970e+01 1.000000000000e+00 
4.826546418609e+01 1.000000000000e+00 
4.826546418609e+01 1.000000000000e+00 
4.832691382989e+01 1.000000000000e+00 
4.832691382989e+01 1.000000000000e+00 
4.838774897775e+01 1.000000000000e+00 
4.838774897775e+01 1.000000000000e+00 
4.844797577565e+01 1.000000000000e+00 
4.844797577565e+01 1.000000000000e+00 
4.850760030272e+01 1.000000000000e+00 
4.850760030272e+01 1.000000000000e+00 
4.856662858440e+01 1.000000000000e+00 
4.856662858440e+01 1.000000000000e+00 
4.862506658469e+01 1.000000000000e+00 
4.862506658469e+01 1.000000000000e+00 
4.868292020509e+01 1.000000000000e+00 
4.868292020509e+01 1.000000000000e+00 
4.874019528879e+01 1.000000000000e+00 
4.874019528879e+01 1.000000000000e+00 
4.879689762203e+01 1.000000000000e+00 
4.879689762203e+01 1.000000000000e+00 
4.885303293148e+01 1.000000000000e+00 
4.885303293148e+01 1.000000000000e+00 
4.890860688544e+01 1.000000000000e+00 
4.890860688544e+01 1.000000000000e+00 
4.896362510248e+01 1.000000000000e+00 
4.896362510248e+01 1.000000000000e+00 
4.901809313747e+01 1.000000000000e+00 
4.901809313747e+01 1.000000000000e+00 
4.907201649040e+01 1.000000000000e+00 
4.907201649040e+01 1.000000000000e+00 
4.912540061108e+01 1.000000000000e+00 
4.912540061108e+01 1.000000000000e+00 
4.917825088901e+01 1.000000000000e+00 
4.917825088901e+01 1.000000000000e+00 
4.923057266597e+01 1.000000000000e+00 
4.923057266597e+01 1.000000000000e+00 
4.928237122526e+01 1.000000000000e+00 
4.928237122526e+01 1.000000000000e+00 
4.933365179723e+01 1.000000000000e+00 
4.933365179723e+01 1.000000000000e+00 
4.938441956358e+01 1.000000000000e+00 
4.938441956358e+01 1.000000000000e+00 
4.943467965118e+01 1.000000000000e+00 
4.943467965118e+01 1.000000000000e+00 
4.948443714043e+01 1.000000000000e+00 
4.948443714043e+01 1.000000000000e+00 
4.953369705510e+01 1.000000000000e+00 
4.953369705510e+01 1.000000000000e+00 
4.958246437093e+01 1.000000000000e+00 
4.958246437093e+01 1.000000000000e+00 
4.963074401274e+01 1.000000000000e+00 
4.963074401274e+01 1.000000000000e+00 
4.967854085565e+01 1.000000000000e+00 
4.967854085565e+01 1.000000000000e+00 
4.972585973323e+01 1.000000000000e+00 
4.972585973323e+01 1.000000000000e+00 
4.977270542373e+01 1.000000000000e+00 
4.977270542373e+01 1.000000000000e+00 
4.981908265477e+01 1.000000000000e+00 
4.981908265477e+01 1.000000000000e+00 
4.986499611176e+01 1.000000000000e+00 
4.986499611176e+01 1.000000000000e+00 
4.991045043505e+01 1.000000000000e+00 
4.991045043505e+01 1.000000000000e+00 
4.995545021718e+01 1.000000000000e+00 
4.995545021718e+01 1.000000000000e+00 
5.000000000000e+01 1.000000000000e+00 
5.000000000000e+01 1.000000000000e+00 
 TITLE = "Profiles along polylines"
 VARIABLES = "DIST" "SATURATION1" 
 ZONE T="TIME=1.797693134862e+308"
0.000000000000e+00 1.000000000000e+00 
0.000000000000e+00 1.000000000000e+00 
5.441042851206e-01 1.000000000000e+00 
5.441042851206e-01 1.000000000000e+00 
1.082767527447e+00 1.000000000000e+00 
1.082767527447e+00 1.000000000000e+00 
1.616044136177e+00 1.000000000000e+00 
1.616044136177e+00 1.000000000000e+00 
2.143987978862e+00 1.000000000000e+00 
2.143987978862e+00 1.000000000000e+00 
2.666652384904e+00 1.000000000000e+00 
2.666652384904e+00 1.000000000000e+00 
3.184090148728e+00 1.000000000000e+00 
3.184090148728e+00 1.000000000000e+00 
3.696353533103e+00 1.000000000000e+00 
3.696353533103e+00 1.000000000000e+00 
4.203494283380e+00 1.000000000000e+00 
4.203494283380e+00 1.000000000000e+00 
4.705563626669e+00 1.000000000000e+00 
4.705563626669e+00 1.000000000000e+00 
5.202612278494e+00 1.000000000000e+00 
5.202612278494e+00 1.000000000000e+00 
5.694690445536e+00 1.000000000000e+00 
5.694690445536e+00 1.000000000000e+00 
6.181847828274e+00 1.000000000000e+00 
6.181847828274e+00 1.000000000000e+00 
6.664133634867e+00 1.000000000000e+00 
6.664133634867e+00 1.000000000000e+00 
7.141596583478e+00 1.000000000000e+00 
7.141596583478e+00 1.000000000000e+00 
7.614284904664e+00 1.000000000000e+00 
7.614284904664e+00 1.000000000000e+00 
8.082246343617e+00 1.000000000000e+00 
8.082246343617e+00 1.000000000000e+00 
8.545528166141e+00 1.000000000000e+00 
8.545528166141e+00 1.000000000000e+00 
9.004177171908e+00 1.000000000000e+00 
9.004177171908e+00 1.000000000000e+00 
9.458239688845e+00 1.000000000000e+00 
9.458239688845e+00 1.000000000000e+00 
9.907761578910e+00 1.000000000000e+00 
9.907761578910e+00 1.000000000000e+00 
1.035278825100e+01 1.000000000000e+00 
1.035278825100e+01 1.000000000000e+00 
1.079336465513e+01 1.000000000000e+00 
1.079336465513e+01 1.000000000000e+00 
1.122953529539e+01 1.000000000000e+00 
1.122953529539e+01 1.000000000000e+00 
1.166134423122e+01 1.000000000000e+00 
1.166134423122e+01 1.000000000000e+00 
1.208883507532e+01 1.000000000000e+00 
1.208883507532e+01 1.000000000000e+00 
1.251205100982e+01 1.000000000000e+00 
1.251205100982e+01 1.000000000000e+00 
1.293103478751e+01 1.000000000000e+00 
1.293103478751e+01 1.000000000000e+00 
1.334582872926e+01 1.000000000000e+00 
1.334582872926e+01 1.000000000000e+00 
1.375647472886e+01 1.000000000000e+00 
1.375647472886e+01 1.000000000000e+00 
1.416301426525e+01 1.000000000000e+00 
1.416301426525e+01 1.000000000000e+00 
1.456548840709e+01 1.000000000000e+00 
1.456548840709e+01 1.000000000000e+00 
1.496393780979e+01 1.000000000000e+00 
1.496393780979e+01 1.000000000000e+00 
1.535840272005e+01 1.000000000000e+00 
1.535840272005e+01 1.000000000000e+00 
1.574892298024e+01 1.000000000000e+00 
1.574892298024e+01 1.000000000000e+00 
1.613553803648e+01 1.000000000000e+00 
1.613553803648e+01 1.000000000000e+00 
1.651828694278e+01 1.000000000000e+00 
1.651828694278e+01 1.000000000000e+00 
1.689720836151e+01 1.000000000000e+00 
1.689720836151e+01 1.000000000000e+00 
1.727234056739e+01 1.000000000000e+00 
1.727234056739e+01 1.000000000000e+00 
1.764372145159e+01 1.000000000000e+00 
1.764372145159e+01 1.000000000000e+00 
1.801138852555e+01 1.000000000000e+00 
1.801138852555e+01 1.000000000000e+00 
1.837537892864e+01 1.000000000000e+00 
1.837537892864e+01 1.000000000000e+00 
1.873572942807e+01 1.000000000000e+00 
1.873572942807e+01 1.000000000000e+00 
1.909247642267e+01 1.000000000000e+00 
1.909247642267e+01 1.000000000000e+00 
1.944565594642e+01 1.000000000000e+00 
1.944565594642e+01 1.000000000000e+00 
1.979530367209e+01 1.000000000000e+00 
1.979530367209e+01 1.000000000000e+00 
2.014145492208e+01 1.000000000000e+00 
2.014145492208e+01 1.000000000000e+00 
2.048414466058e+01 1.000000000000e+00 
2.048414466058e+01 1.000000000000e+00 
2.082340750076e+01 1.000000000000e+00 
2.082340750076e+01 1.000000000000e+00 
2.115927771161e+01 1.000000000000e+00 
2.115927771161e+01 1.000000000000e+00 
2.149178922127e+01 1.000000000000e+00 
2.149178922127e+01 1.000000000000e+00 
2.182097561621e+01 1.000000000000e+00 
2.182097561621e+01 1.000000000000e+00 
2.214687014446e+01 1.000000000000e+00 
2.214687014446e+01 1.000000000000e+00 
2.246950572974e+01 9.406213221223e-01 
2.246950572974e+01 9.424811583863e-01 
2.278891495927e+01 8.732246534282e-01 
2.278891495927e+01 8.748412426918e-01 
2.310513009435e+01 8.169972173305e-01 
2.310513009435e+01 8.183330775270e-01 
2.341818308041e+01 7.710415588231e-01 
2.341818308041e+01 7.721456608688e-01 
2.372810553851e+01 7.331673244813e-01 
2.372810553851e+01 7.340920753567e-01 
2.403492877185e+01 7.014877231913e-01 
2.403492877185e+01 7.022743390168e-01 
2.433868377201e+01 6.745848027040e-01 
2.433868377201e+01 6.752637973266e-01 
2.463940122147e+01 6.514198235789e-01 
2.463940122147e+01 6.520136376808e-01 
2.493711149608e+01 6.312286270287e-01 
2.493711149608e+01 6.317539259733e-01 
2.523184466745e+01 6.134413601597e-01 
2.523184466745e+01 6.139107066296e-01 
2.552363050527e+01 5.976261248123e-01 
2.552363050527e+01 5.980491423356e-01 
2.581249848333e+01 5.834501951287e-01 
2.581249848333e+01 5.838343721658e-01 
2.609847778178e+01 5.706532484413e-01 
2.609847778178e+01 5.710044982572e-01 
2.638159728912e+01 5.590286747622e-01 
2.638159728912e+01 5.593517303241e-01 
2.666188560445e+01 5.484103346461e-01 
2.666188560445e+01 5.487090313044e-01 
2.693937103568e+01 5.386630312534e-01 
2.693937103568e+01 5.389405121674e-01 
2.721408160901e+01 5.296755490535e-01 
2.721408160901e+01 5.299344166782e-01 
2.748604507877e+01 5.213554933747e-01 
2.748604507877e+01 5.215979227362e-01 
2.775528891688e+01 5.136254126505e-01 
2.775528891688e+01 5.138532371641e-01 
2.802184031589e+01 5.064198460994e-01 
2.802184031589e+01 5.066346233819e-01 
2.828572620141e+01 4.996830491304e-01 
2.828572620141e+01 4.998861120464e-01 
2.854697322636e+01 4.933672220238e-01 
2.854697322636e+01 4.935597186981e-01 
2.880560778016e+01 4.874311155835e-01 
2.880560778016e+01 4.876140410741e-01 
2.906165599024e+01 4.818389234804e-01 
2.906165599024e+01 4.820131450792e-01 
2.931514371614e+01 4.765593944978e-01 
2.931514371614e+01 4.767256721144e-01 
2.956609656599e+01 4.715651145645e-01 
2.956609656599e+01 4.717241172783e-01 
2.981453988641e+01 4.668319224922e-01 
2.981453988641e+01 4.669842420932e-01 
3.006049877248e+01 4.623384302873e-01 
3.006049877248e+01 4.624845924307e-01 
3.030399807077e+01 4.580656271044e-01 
3.030399807077e+01 4.582061005590e-01 
3.054506237510e+01 4.539965501999e-01 
3.054506237510e+01 4.541317545629e-01 
3.078371603804e+01 4.501160095717e-01 
3.078371603804e+01 4.502463217415e-01 
3.101998316474e+01 4.464103567377e-01 
3.101998316474e+01 4.465361163736e-01 
3.125388761788e+01 4.428672891469e-01 
3.125388761788e+01 4.429888032981e-01 
3.148545302621e+01 4.394756840132e-01 
3.148545302621e+01 4.395932310619e-01 
3.171470278178e+01 4.362254566859e-01 
3.171470278178e+01 4.363392897221e-01 
3.194166004093e+01 4.331074392089e-01 
3.194166004093e+01 4.332177889306e-01 
3.216634772905e+01 4.301132757521e-01 
3.216634772905e+01 4.302203529682e-01 
3.238878854137e+01 4.272353323055e-01 
3.238878854137e+01 4.273393301041e-01 
3.260900494388e+01 4.244666183527e-01 
3.260900494388e+01 4.245677139864e-01 
3.282701918161e+01 4.218007186010e-01 
3.282701918161e+01 4.218990751318e-01 
3.304285327554e+01 4.192317334898e-01 
3.304285327554e+01 4.193275012295e-01 
3.325652902722e+01 4.167542269707e-01 
3.325652902722e+01 4.168475447456e-01 
3.346806802295e+01 4.143631806112e-01 
3.346806802295e+01 4.144541768761e-01 
3.367749163080e+01 4.120539532147e-01 
3.367749163080e+01 4.121427470375e-01 
3.388482100116e+01 4.098222450808e-01 
3.388482100116e+01 4.099089470143e-01 
3.409007707479e+01 4.076640662445e-01 
3.409007707479e+01 4.077487791014e-01 
3.429328059074e+01 4.055757082539e-01 
3.429328059074e+01 4.056585277961e-01 
3.449445207175e+01 4.035537192469e-01 
3.449445207175e+01 4.036347348016e-01 
3.469361183610e+01 4.015948814332e-01 
3.469361183610e+01 4.016741764439e-01 
3.489078000522e+01 3.996961909791e-01 
3.489078000522e+01 3.997738434997e-01 
3.508597649293e+01 3.978548401362e-01 
3.508597649293e+01 3.979309232748e-01 
3.527922101316e+01 3.960682010006e-01 
3.527922101316e+01 3.961427833200e-01 
3.547053308772e+01 3.943338108869e-01 
3.547053308772e+01 3.944069567649e-01 
3.565993204265e+01 3.926493592254e-01 
3.565993204265e+01 3.927211291816e-01 
3.584743700848e+01 3.910126756807e-01 
3.584743700848e+01 3.910831266717e-01 
3.603306692405e+01 3.894217193557e-01 
3.603306692405e+01 3.894909050435e-01 
3.621684054035e+01 3.878745689952e-01 
3.621684054035e+01 3.879425399911e-01 
3.639877642056e+01 3.863694141116e-01 
3.639877642056e+01 3.864362181978e-01 
3.657889293994e+01 3.849045469045e-01 
3.657889293994e+01 3.849702292370e-01 
3.675720829391e+01 3.834783548275e-01 
3.675720829391e+01 3.835429581205e-01 
3.693374049671e+01 3.820893138715e-01 
3.693374049671e+01 3.821528785670e-01 
3.710850737877e+01 3.807359824317e-01 
3.710850737877e+01 3.807985468543e-01 
3.728152658979e+01 3.794169956447e-01 
3.728152658979e+01 3.794785961435e-01 
3.745281560988e+01 3.781310601343e-01 
3.745281560988e+01 3.781917312139e-01 
3.762239174177e+01 3.768769493257e-01 
3.762239174177e+01 3.769367237660e-01 
3.779027211067e+01 3.756534990776e-01 
3.779027211067e+01 3.757124080445e-01 
3.795647367521e+01 3.744596035828e-01 
3.795647367521e+01 3.745176767304e-01 
3.812101322331e+01 3.732942116937e-01 
3.812101322331e+01 3.733514772582e-01 
3.828390737565e+01 3.721563234773e-01 
3.828390737565e+01 3.722128083644e-01 
3.844517258894e+01 3.710449870328e-01 
3.844517258894e+01 3.711007168981e-01 
3.860482515178e+01 3.699592955974e-01 
3.860482515178e+01 3.700142949209e-01 
3.876288118803e+01 3.688983848146e-01 
3.876288118803e+01 3.689526769702e-01 
3.891935666376e+01 3.678614301784e-01 
3.891935666376e+01 3.679150374983e-01 
3.907426738294e+01 3.668476447339e-01 
3.907426738294e+01 3.669005885678e-01 
3.922762899449e+01 3.658562768678e-01 
3.922762899449e+01 3.659085776390e-01 
3.937945699157e+01 3.648866083032e-01 
3.937945699157e+01 3.649382855601e-01 
3.952976670727e+01 3.639379522542e-01 
3.952976670727e+01 3.639890247187e-01 
3.967857332527e+01 3.630096516152e-01 