 TITLE = "Profiles along polylines"
 VARIABLES = "DIST" "SATURATION1" 
 ZONE T="TIME=0.000000000000e+00"
0.000000000000e+00 1.000000000000e+00 
5.441042851206e-01 1.000000000000e+00 
1.082767527447e+00 1.000000000000e+00 
1.616044136177e+00 1.000000000000e+00 
2.143987978862e+00 1.000000000000e+00 
2.666652384904e+00 1.000000000000e+00 
3.184090148728e+00 1.000000000000e+00 
3.696353533103e+00 1.000000000000e+00 
4.203494283380e+00 1.000000000000e+00 
4.705563626669e+00 1.000000000000e+00 
5.202612278494e+00 1.000000000000e+00 
5.694690445536e+00 1.000000000000e+00 
6.181847828274e+00 1.000000000000e+00 
6.664133634867e+00 1.000000000000e+00 
7.141596583478e+00 1.000000000000e+00 
7.614284904664e+00 1.000000000000e+00 
8.082246343617e+00 1.000000000000e+00 
8.545528166141e+00 1.000000000000e+00 
9.004177171908e+00 1.000000000000e+00 
9.458239688845e+00 1.000000000000e+00 
9.907761578910e+00 1.000000000000e+00 
1.035278825100e+01 1.000000000000e+00 
1.079336465513e+01 1.000000000000e+00 
1.122953529539e+01 1.000000000000e+00 
1.166134423122e+01 1.000000000000e+00 
1.208883507532e+01 1.000000000000e+00 
1.251205100982e+01 1.000000000000e+00 
1.293103478751e+01 1.000000000000e+00 
1.334582872926e+01 1.000000000000e+00 
1.375647472886e+01 1.000000000000e+00 
1.416301426525e+01 1.000000000000e+00 
1.456548840709e+01 1.000000000000e+00 
1.496393780979e+01 1.000000000000e+00 
1.535840272005e+01 1.000000000000e+00 
1.574892298024e+01 1.000000000000e+00 
1.613553803648e+01 1.000000000000e+00 
1.651828694278e+01 1.000000000000e+00 
1.689720836151e+01 1.000000000000e+00 
1.727234056739e+01 1.000000000000e+00 
1.764372145159e+01 1.000000000000e+00 
1.801138852555e+01 1.000000000000e+00 
1.837537892864e+01 1.000000000000e+00 
1.873572942807e+01 1.000000000000e+00 
1.909247642267e+01 1.000000000000e+00 
1.944565594642e+01 1.000000000000e+00 
1.979530367209e+01 1.000000000000e+00 
2.014145492208e+01 1.000000000000e+00 
2.048414466058e+01 1.000000000000e+00 
2.082340750076e+01 1.000000000000e+00 
2.115927771161e+01 1.000000000000e+00 
2.149178922127e+01 1.000000000000e+00 
2.182097561621e+01 1.000000000000e+00 
2.214687014446e+01 1.000000000000e+00 
2.246950572974e+01 1.000000000000e+00 
2.278891495927e+01 1.000000000000e+00 
2.310513009435e+01 1.000000000000e+00 
2.341818308041e+01 1.000000000000e+00 
2.372810553851e+01 1.000000000000e+00 
2.403492877185e+01 1.000000000000e+00 
2.433868377201e+01 1.000000000000e+00 
2.463940122147e+01 1.000000000000e+00 
2.493711149608e+01 1.000000000000e+00 
2.523184466745e+01 1.000000000000e+00 
2.552363050527e+01 1.000000000000e+00 
2.581249848333e+01 1.000000000000e+00 
2.609847778178e+01 1.000000000000e+00 
2.638159728912e+01 1.000000000000e+00 
2.666188560445e+01 1.000000000000e+00 
2.693937103568e+01 1.000000000000e+00 
2.721408160901e+01 1.000000000000e+00 
2.748604507877e+01 1.000000000000e+00 
2.775528891688e+01 1.000000000000e+00 
2.802184031589e+01 1.000000000000e+00 
2.828572620141e+01 1.000000000000e+00 
2.854697322636e+01 1.000000000000e+00 
2.880560778016e+01 1.000000000000e+00 
2.906165599024e+01 1.000000000000e+00 
2.931514371614e+01 1.000000000000e+00 
2.956609656599e+01 1.000000000000e+00 
2.981453988641e+01 1.000000000000e+00 
3.006049877248e+01 1.000000000000e+00 
3.030399807077e+01 1.000000000000e+00 
3.054506237510e+01 1.000000000000e+00 
3.078371603804e+01 1.000000000000e+00 
3.101998316474e+01 1.000000000000e+00 
3.125388761788e+01 1.000000000000e+00 
3.148545302621e+01 1.000000000000e+00 
3.171470278178e+01 1.000000000000e+00 
3.194166004093e+01 1.000000000000e+00 
3.216634772905e+01 1.000000000000e+00 
3.238878854137e+01 1.000000000000e+00 
3.260900494388e+01 1.000000000000e+00 
3.282701918161e+01 1.000000000000e+00 
3.304285327554e+01 1.000000000000e+00 
3.325652902722e+01 1.000000000000e+00 
3.346806802295e+01 1.000000000000e+00 
3.367749163080e+01 1.000000000000e+00 
3.388482100116e+01 1.000000000000e+00 
3.409007707479e+01 1.000000000000e+00 
3.429328059074e+01 1.000000000000e+00 
3.449445207175e+01 1.000000000000e+00 
3.469361183610e+01 1.000000000000e+00 
3.489078000522e+01 1.000000000000e+00 
3.508597649293e+01 1.000000000000e+00 
3.527922101316e+01 1.000000000000e+00 
3.547053308772e+01 1.000000000000e+00 
3.565993204265e+01 1.000000000000e+00 
3.584743700848e+01 1.000000000000e+00 
3.603306692405e+01 1.000000000000e+00 
3.621684054035e+01 1.000000000000e+00 
3.639877642056e+01 1.000000000000e+00 
3.657889293994e+01 1.000000000000e+00 
3.675720829391e+01 1.000000000000e+00 
3.693374049671e+01 1.000000000000e+00 
3.710850737877e+01 1.000000000000e+00 
3.728152658979e+01 1.000000000000e+00 
3.745281560988e+01 1.000000000000e+00 
3.762239174177e+01 1.000000000000e+00 
3.779027211067e+01 1.000000000000e+00 
3.795647367521e+01 1.000000000000e+00 
3.812101322331e+01 1.000000000000e+00 
3.828390737565e+01 1.000000000000e+00 
3.844517258894e+01 1.000000000000e+00 
3.860482515178e+01 1.000000000000e+00 
3.876288118803e+01 1.000000000000e+00 
3.891935666376e+01 1.000000000000e+00 
3.907426738294e+01 1.000000000000e+00 
3.922762899449e+01 1.000000000000e+00 
3.937945699157e+01 1.000000000000e+00 
3.952976670727e+01 1.000000000000e+00 
3.967857332527e+01 1.000000000000e+00 
3.982589187903e+01 1.000000000000e+00 
3.997173724741e+01 1.000000000000e+00 
4.011612416147e+01 1.000000000000e+00 
4.025906720735e+01 1.000000000000e+00 
4.040058082176e+01 1.000000000000e+00 
4.054067929873e+01 1.000000000000e+00 
4.067937679236e+01 1.000000000000e+00 
4.081668731222e+01 1.000000000000e+00 
4.095262472626e+01 1.000000000000e+00 
4.108720276731e+01 1.000000000000e+00 
4.122043502832e+01 1.000000000000e+00 
4.135233496520e+01 1.000000000000e+00 
4.148291590322e+01 1.000000000000e+00 
4.161219103221e+01 1.000000000000e+00 
4.174017340925e+01 1.000000000000e+00 
4.186687596131e+01 1.000000000000e+00 
4.199231148785e+01 1.000000000000e+00 
4.211649265963e+01 1.000000000000e+00 
4.223943201759e+01 1.000000000000e+00 
4.236114198285e+01 1.000000000000e+00 
4.248163485166e+01 1.000000000000e+00 
4.260092279047e+01 1.000000000000e+00 
4.271901784967e+01 1.000000000000e+00 
4.283593195840e+01 1.000000000000e+00 
4.295167692334e+01 1.000000000000e+00 
4.306626443854e+01 1.000000000000e+00 
4.317970608023e+01 1.000000000000e+00 
4.329201330550e+01 1.000000000000e+00 
4.340319745833e+01 1.000000000000e+00 
4.351326977187e+01 1.000000000000e+00 
4.362224136320e+01 1.000000000000e+00 
4.373012323567e+01 1.000000000000e+00 
4.383692628857e+01 1.000000000000e+00 
4.394266131175e+01 1.000000000000e+00 
4.404733898418e+01 1.000000000000e+00 
4.415096987977e+01 1.000000000000e+00 
4.425356446581e+01 1.000000000000e+00 
4.435513310507e+01 1.000000000000e+00 
4.445568605787e+01 1.000000000000e+00 
4.455523348420e+01 1.000000000000e+00 
4.465378543817e+01 1.000000000000e+00 
4.475135187021e+01 1.000000000000e+00 
4.484794263652e+01 1.000000000000e+00 
4.494356749723e+01 1.000000000000e+00 
4.503823611090e+01 1.000000000000e+00 
4.513195803658e+01 1.000000000000e+00 
4.522474274315e+01 1.000000000000e+00 
4.531659960371e+01 1.000000000000e+00 
4.540753789381e+01 1.000000000000e+00 
4.549756680079e+01 1.000000000000e+00 
4.558669541809e+01 1.000000000000e+00 
4.567493274718e+01 1.000000000000e+00 
4.576228770304e+01 1.000000000000e+00 
4.584876911224e+01 1.000000000000e+00 
4.593438570720e+01 1.000000000000e+00 
4.601914613560e+01 1.000000000000e+00 
4.610305896190e+01 1.000000000000e+00 
4.618613265801e+01 1.000000000000e+00 
4.626837561620e+01 1.000000000000e+00 
4.634979614698e+01 1.000000000000e+00 
4.643040247333e+01 1.000000000000e+00 
4.651020273612e+01 1.000000000000e+00 
4.658920499579e+01 1.000000000000e+00 
4.666741723389e+01 1.000000000000e+00 
4.674484735100e+01 1.000000000000e+00 
4.682150316457e+01 1.000000000000e+00 
4.689739241807e+01 1.000000000000e+00 
4.697252277866e+01 1.000000000000e+00 
4.704690183510e+01 1.000000000000e+00 
4.712053710297e+01 1.000000000000e+00 
4.719343601870e+01 1.000000000000e+00 
4.726560594489e+01 1.000000000000e+00 
4.733705417173e+01 1.000000000000e+00 
4.740778791477e+01 1.000000000000e+00 
4.747781432010e+01 1.000000000000e+00 
4.754714046201e+01 1.000000000000e+00 
4.761577334449e+01 1.000000000000e+00 
4.768371989882e+01 1.000000000000e+00 
4.775098698509e+01 1.000000000000e+00 
4.781758140100e+01 1.000000000000e+00 
4.788350987569e+01 1.000000000000e+00 
4.794877906368e+01 1.000000000000e+00 
4.801339555752e+01 1.000000000000e+00 
4.807736588897e+01 1.000000000000e+00 
4.814069651914e+01 1.000000000000e+00 
4.820339383970e+01 1.000000000000e+00 
4.826546418609e+01 1.000000000000e+00 
4.832691382989e+01 1.000000000000e+00 
4.838774897775e+01 1.000000000000e+00 
4.844797577565e+01 1.000000000000e+00 
4.850760030272e+01 1.000000000000e+00 
4.856662858440e+01 1.000000000000e+00 
4.862506658469e+01 1.000000000000e+00 
4.868292020509e+01 1.000000000000e+00 
4.874019528879e+01 1.000000000000e+00 
4.879689762203e+01 1.000000000000e+00 
4.885303293148e+01 1.000000000000e+00 
4.890860688544e+01 1.000000000000e+00 
4.896362510248e+01 1.000000000000e+00 
4.901809313747e+01 1.000000000000e+00 
4.907201649040e+01 1.000000000000e+00 
4.912540061108e+01 1.000000000000e+00 
4.917825088901e+01 1.000000000000e+00 
4.923057266597e+01 1.000000000000e+00 
4.928237122526e+01 1.000000000000e+00 
4.933365179723e+01 1.000000000000e+00 
4.938441956358e+01 1.000000000000e+00 
4.943467965118e+01 1.000000000000e+00 
4.948443714043e+01 1.000000000000e+00 
4.953369705510e+01 1.000000000000e+00 
4.958246437093e+01 1.000000000000e+00 
4.963074401274e+01 1.000000000000e+00 
4.967854085565e+01 1.000000000000e+00 
4.972585973323e+01 1.000000000000e+00 
4.977270542373e+01 1.000000000000e+00 
4.981908265477e+01 1.000000000000e+00 
4.986499611176e+01 1.000000000000e+00 
4.991045043505e+01 1.000000000000e+00 
4.995545021718e+01 1.000000000000e+00 
5.000000000000e+01 1.000000000000e+00 
 TITLE = "Profiles along polylines"
 VARIABLES = "DIST" "SATURATION1" 
 ZONE T="TIME=1.797693134862e+308"
0.000000000000e+00 1.000000000000e+00 
5.441042851206e-01 1.000000000000e+00 
1.082767527447e+00 1.000000000000e+00 
1.616044136177e+00 1.000000000000e+00 
2.143987978862e+00 1.000000000000e+00 
2.666652384904e+00 1.000000000000e+00 
3.184090148728e+00 1.000000000000e+00 
3.696353533103e+00 1.000000000000e+00 
4.203494283380e+00 1.000000000000e+00 
4.705563626669e+00 1.000000000000e+00 
5.202612278494e+00 1.000000000000e+00 
5.694690445536e+00 1.000000000000e+00 
6.181847828274e+00 1.000000000000e+00 
6.664133634867e+00 1.000000000000e+00 
7.141596583478e+00 1.000000000000e+00 
7.614284904664e+00 1.000000000000e+00 
8.082246343617e+00 1.000000000000e+00 
8.545528166141e+00 1.000000000000e+00 
9.004177171908e+00 1.000000000000e+00 
9.458239688845e+00 1.000000000000e+00 
9.907761578910e+00 1.000000000000e+00 
1.035278825100e+01 1.000000000000e+00 
1.079336465513e+01 1.000000000000e+00 
1.122953529539e+01 1.000000000000e+00 
1.166134423122e+01 1.000000000000e+00 
1.208883507532e+01 1.000000000000e+00 
1.251205100982e+01 1.000000000000e+00 
1.293103478751e+01 1.000000000000e+00 
1.334582872926e+01 1.000000000000e+00 
1.375647472886e+01 1.000000000000e+00 
1.416301426525e+01 1.000000000000e+00 
1.456548840709e+01 1.000000000000e+00 
1.496393780979e+01 1.000000000000e+00 
1.535840272005e+01 1.000000000000e+00 
1.574892298024e+01 1.000000000000e+00 
1.613553803648e+01 1.000000000000e+00 
1.651828694278e+01 1.000000000000e+00 
1.689720836151e+01 1.000000000000e+00 
1.727234056739e+01 1.000000000000e+00 
1.764372145159e+01 1.000000000000e+00 
1.801138852555e+01 1.000000000000e+00 
1.837537892864e+01 1.000000000000e+00 
1.873572942807e+01 1.000000000000e+00 
1.909247642267e+01 1.000000000000e+00 
1.944565594642e+01 1.000000000000e+00 
1.979530367209e+01 1.000000000000e+00 
2.014145492208e+01 1.000000000000e+00 
2.048414466058e+01 1.000000000000e+00 
2.082340750076e+01 1.000000000000e+00 
2.115927771161e+01 9.566360469202e-01 
2.149178922127e+01 8.843272403842e-01 
2.182097561621e+01 8.240263600346e-01 
2.214687014446e+01 7.751057610308e-01 
2.246950572974e+01 7.351355726196e-01 
2.278891495927e+01 7.019603814936e-01 
2.310513009435e+01 6.739704142205e-01 
2.341818308041e+01 6.499999128581e-01 
2.372810553851e+01 6.292011084190e-01 
2.403492877185e+01 6.109483321938e-01 
2.433868377201e+01 5.947716727791e-01 
2.463940122147e+01 5.803119655869e-01 
2.493711149608e+01 5.672901233260e-01 
2.523184466745e+01 5.554859649295e-01 
2.552363050527e+01 5.447233654113e-01 
2.581249848333e+01 5.348596643614e-01 
2.609847778178e+01 5.257779880635e-01 
2.638159728912e+01 5.173815969389e-01 
2.666188560445e+01 5.095896633945e-01 
2.693937103568e+01 5.023340755014e-01 
2.721408160901e+01 4.955569865549e-01 
2.748604507877e+01 4.892089148866e-01 
2.775528891688e+01 4.832472549883e-01 
2.802184031589e+01 4.776350986449e-01 
2.828572620141e+01 4.723402929851e-01 
2.854697322636e+01 4.673346818820e-01 
2.880560778016e+01 4.625934895732e-01 
2.906165599024e+01 4.580948164872e-01 
2.931514371614e+01 4.538192239836e-01 
2.956609656599e+01 4.497493896447e-01 
2.981453988641e+01 4.458698201114e-01 
3.006049877248e+01 4.421666098267e-01 
3.030399807077e+01 4.386272376257e-01 
3.054506237510e+01 4.352403943731e-01 
3.078371603804e+01 4.319958359133e-01 
3.101998316474e+01 4.288842574656e-01 
3.125388761788e+01 4.258971855313e-01 
3.148545302621e+01 4.230268845805e-01 
3.171470278178e+01 4.202662763571e-01 
3.194166004093e+01 4.176088696785e-01 
3.216634772905e+01 4.150486991508e-01 
3.238878854137e+01 4.125802715687e-01 
3.260900494388e+01 4.101985188516e-01 
3.282701918161e+01 4.078987565164e-01 
3.304285327554e+01 4.056766471168e-01 
3.325652902722e+01 4.035281677853e-01 
3.346806802295e+01 4.014495814138e-01 
3.367749163080e+01 3.994374110682e-01 
3.388482100116e+01 3.974884171207e-01 
3.409007707479e+01 3.955995767273e-01 
3.429328059074e+01 3.937680654333e-01 
3.449445207175e+01 3.919912408452e-01 
3.469361183610e+01 3.902666277022e-01 
3.489078000522e+01 3.885919044480e-01 
3.508597649293e+01 3.869648912481e-01 
3.527922101316e+01 3.853835389875e-01 
3.547053308772e+01 3.838459192938e-01 
3.565993204265e+01 3.823502155612e-01 
3.584743700848e+01 3.808947147518e-01 
3.603306692405e+01 3.794777998941e-01 
3.621684054035e+01 3.780979432357e-01 
3.639877642056e+01 3.767537000105e-01 
3.657889293994e+01 3.754437027322e-01 
3.675720829391e+01 3.741666559041e-01 
3.693374049671e+01 3.729213312281e-01 
3.710850737877e+01 3.717065632085e-01 
3.728152658979e+01 3.705212450661e-01 
3.745281560988e+01 3.693643249184e-01 
3.762239174177e+01 3.682348023805e-01 
3.779027211067e+01 3.671317253735e-01 
3.795647367521e+01 3.660541871025e-01 
3.812101322331e+01 3.650013233533e-01 
3.828390737565e+01 3.639723099395e-01 
3.844517258894e+01 3.629663603343e-01 
3.860482515178e+01 3.619827235166e-01 
3.876288118803e+01 3.610206819228e-01 
3.891935666376e+01 3.600795495192e-01 
3.907426738294e+01 3.591586700725e-01 
3.922762899449e+01 3.582574154717e-01 
3.937945699157e+01 3.573751842065e-01 
3.952976670727e+01 3.565113999661e-01 
3.967857332527e+01 3.556655102455e-01 
3.982589187903e+01 3.548369851053e-01 
3.997173724741e+01 3.540253160302e-01 
4.011612416147e+01 3.532300147984e-01 
4.025906720735e+01 3.524506124418e-01 
4.040058082176e+01 3.516866583106e-01 
4.054067929873e+01 3.509377191349e-01 
4.067937679236e+01 3.502033781627e-01 
4.081668731222e+01 3.494832343887e-01 
4.095262472626e+01 3.487769017892e-01 
4.108720276731e+01 3.480840085830e-01 
4.122043502832e+01 3.474041965921e-01 
4.135233496520e+01 3.467371206007e-01 
4.148291590322e+01 3.460824477319e-01 
4.161219103221e+01 3.454398569160e-01 
4.174017340925e+01 3.448090383495e-01 
4.186687596131e+01 3.441896929856e-01 
4.199231148785e+01 3.435815320513e-01 
4.211649265963e+01 3.429842766092e-01 
4.223943201759e+01 3.423976571419e-01 
4.236114198285e+01 3.418214131058e-01 
4.248163485166e+01 3.412552925785e-01 
4.260092279047e+01 3.406990519238e-01 
4.271901784967e+01 3.401524553881e-01 
4.283593195840e+01 3.396152748034e-01 
4.295167692334e+01 3.390872892868e-01 
4.306626443854e+01 3.385682849062e-01 
4.317970608023e+01 3.380580544281e-01 
4.329201330550e+01 3.375563970623e-01 
4.340319745833e+01 3.370631181846e-01 
4.351326977187e+01 3.365780290909e-01 
4.362224136320e+01 3.361009467943e-01 
4.373012323567e+01 3.356316938001e-01 
4.383692628857e+01 3.351700978589e-01 
4.394266131175e+01 3.347159917958e-01 
4.404733898418e+01 3.342692133306e-01 
4.415096987977e+01 3.338296048753e-01 
4.425356446581e+01 3.333970133724e-01 
4.435513310507e+01 3.329712901240e-01 
4.445568605787e+01 3.325522906297e-01 
4.455523348420e+01 3.321398744307e-01 
4.465378543817e+01 3.317339049923e-01 
4.475135187021e+01 3.313342495600e-01 
4.484794263652e+01 3.309407789924e-01 
4.494356749723e+01 3.305533676466e-01 
4.503823611090e+01 3.301718932825e-01 
4.513195803658e+01 3.297962369426e-01 
4.522474274315e+01 3.294262828058e-01 
4.531659960371e+01 3.290619181079e-01 
4.540753789381e+01 3.287030330494e-01 
4.549756680079e+01 3.283495206640e-01 
4.558669541809e+01 3.280012767503e-01 
4.567493274718e+01 3.276581997773e-01 
4.576228770304e+01 3.273201907801e-01 
4.584876911224e+01 3.269871532869e-01 
4.593438570720e+01 3.266589932648e-01 
4.601914613560e+01 3.263356190097e-01 
4.610305896190e+01 3.260169410698e-01 
4.618613265801e+01 3.257028722133e-01 
4.626837561620e+01 3.253933273142e-01 
4.634979614698e+01 3.250882232975e-01 
4.643040247333e+01 3.247874791011e-01 
4.651020273612e+01 3.244910155971e-01 
4.658920499579e+01 3.241987555301e-01 
4.666741723389e+01 3.239106234579e-01 
4.674484735100e+01 3.236265457076e-01 
4.682150316457e+01 3.233464503341e-01 
4.689739241807e+01 3.230702670386e-01 
4.697252277866e+01 3.227979271314e-01 
4.704690183510e+01 3.225293634952e-01 
4.712053710297e+01 3.222645105240e-01 
4.719343601870e+01 3.220033041031e-01 
4.726560594489e+01 3.217456815503e-01 
4.733705417173e+01 3.214915815733e-01 
4.740778791477e+01 3.212409442405e-01 
4.747781432010e+01 3.209937109271e-01 
4.754714046201e+01 3.207498242898e-01 
4.761577334449e+01 3.205092282281e-01 
4.768371989882e+01 3.202718678611e-01 
4.775098698509e+01 3.200376894914e-01 
4.781758140100e+01 3.198066405451e-01 
4.788350987569e+01 3.195786695645e-01 
4.794877906368e+01 3.193537262015e-01 
4.801339555752e+01 3.191317611473e-01 
4.807736588897e+01 3.189127261027e-01 
4.814069651914e+01 3.186965737873e-01 
4.820339383970e+01 3.184832579107e-01 
4.826546418609e+01 3.182727331050e-01 
4.832691382989e+01 3.180649549278e-01 
4.838774897775e+01 3.178598798448e-01 
4.844797577565e+01 3.176574651937e-01 
4.850760030272e+01 3.174576691853e-01 
4.856662858440e+01 3.172604508395e-01 
4.862506658469e+01 3.170657699924e-01 
4.868292020509e+01 3.168735872814e-01 
4.874019528879e+01 3.166838641140e-01 
4.879689762203e+01 3.164965626452e-01 
4.885303293148e+01 3.163116457705e-01 
4.890860688544e+01 3.161290771053e-01 
4.896362510248e+01 3.159488209412e-01 
4.901809313747e+01 3.157708422767e-01 
4.907201649040e+01 3.155951067736e-01 
4.912540061108e+01 3.154215807279e-01 
4.917825088901e+01 3.152502310887e-01 
4.923057266597e+01 3.150810254042e-01 
4.928237122526e+01 3.149139318438e-01 
4.933365179723e+01 3.147489191677e-01 
4.938441956358e+01 3.145859567008e-01 
4.943467965118e+01 3.144250143414e-01 
4.948443714043e+01 3.142660625225e-01 
4.953369705510e+01 3.141090722336e-01 
4.958246437093e+01 3.139540149826e-01 
4.963074401274e+01 3.138008627945e-01 
4.967854085565e+01 3.136495881975e-01 
4.972585973323e+01 3.135001641876e-01 
4.977270542373e+01 3.133525642630e-01 
4.981908265477e+01 3.132067623993e-01 
4.986499611176e+01 3.130627330149e-01 
4.991045043505e+01 3.129204509709e-01 
4.995545021718e+01 3.127798915716e-01 
5.000000000000e+01 3.126410304038e-01 
