 TITLE = "Profiles along polylines"
 VARIABLES = "DIST" "SATURATION1" 
 ZONE T="TIME=0.000000000000e+00"
0.000000000000e+00 1.000000000000e+00 
0.000000000000e+00 1.000000000000e+00 
5.441042851206e-01 1.000000000000e+00 
5.441042851206e-01 1.000000000000e+00 
1.082767527447e+00 1.000000000000e+00 
1.082767527447e+00 1.000000000000e+00 
1.616044136177e+00 1.000000000000e+00 
1.616044136177e+00 1.000000000000e+00 
2.143987978862e+00 1.000000000000e+00 
2.143987978862e+00 1.000000000000e+00 
2.666652384904e+00 1.000000000000e+00 
2.666652384904e+00 1.000000000000e+00 
3.184090148728e+00 1.000000000000e+00 
3.184090148728e+00 1.000000000000e+00 
3.696353533103e+00 1.000000000000e+00 
3.696353533103e+00 1.000000000000e+00 
4.203494283380e+00 1.000000000000e+00 
4.203494283380e+00 1.000000000000e+00 
4.705563626669e+00 1.000000000000e+00 
4.705563626669e+00 1.000000000000e+00 
5.202612278494e+00 1.000000000000e+00 
5.202612278494e+00 1.000000000000e+00 
5.694690445536e+00 1.000000000000e+00 
5.694690445536e+00 1.000000000000e+00 
6.181847828274e+00 1.000000000000e+00 
6.181847828274e+00 1.000000000000e+00 
6.664133634867e+00 1.000000000000e+00 
6.664133634867e+00 1.000000000000e+00 
7.141596583478e+00 1.000000000000e+00 
7.141596583478e+00 1.000000000000e+00 
7.614284904664e+00 1.000000000000e+00 
7.614284904664e+00 1.000000000000e+00 
8.082246343617e+00 1.000000000000e+00 
8.082246343617e+00 1.000000000000e+00 
8.545528166141e+00 1.000000000000e+00 
8.545528166141e+00 1.000000000000e+00 
9.004177171908e+00 1.000000000000e+00 
9.004177171908e+00 1.000000000000e+00 
9.458239688845e+00 1.000000000000e+00 
9.458239688845e+00 1.000000000000e+00 
9.907761578910e+00 1.000000000000e+00 
9.907761578910e+00 1.000000000000e+00 
1.035278825100e+01 1.000000000000e+00 
1.035278825100e+01 1.000000000000e+00 
1.079336465513e+01 1.000000000000e+00 
1.079336465513e+01 1.000000000000e+00 
1.122953529539e+01 1.000000000000e+00 
1.122953529539e+01 1.000000000000e+00 
1.166134423122e+01 1.000000000000e+00 
1.166134423122e+01 1.000000000000e+00 
1.208883507532e+01 1.000000000000e+00 
1.208883507532e+01 1.000000000000e+00 
1.251205100982e+01 1.000000000000e+00 
1.251205100982e+01 1.000000000000e+00 
1.293103478751e+01 1.000000000000e+00 
1.293103478751e+01 1.000000000000e+00 
1.334582872926e+01 1.000000000000e+00 
1.334582872926e+01 1.000000000000e+00 
1.375647472886e+01 1.000000000000e+00 
1.375647472886e+01 1.000000000000e+00 
1.416301426525e+01 1.000000000000e+00 
1.416301426525e+01 1.000000000000e+00 
1.456548840709e+01 1.000000000000e+00 
1.456548840709e+01 1.000000000000e+00 
1.496393780979e+01 1.000000000000e+00 
1.496393780979e+01 1.000000000000e+00 
1.535840272005e+01 1.000000000000e+00 
1.535840272005e+01 1.000000000000e+00 
1.574892298024e+01 1.000000000000e+00 
1.574892298024e+01 1.000000000000e+00 
1.613553803648e+01 1.000000000000e+00 
1.613553803648e+01 1.000000000000e+00 
1.651828694278e+01 1.000000000000e+00 
1.651828694278e+01 1.000000000000e+00 
1.689720836151e+01 1.000000000000e+00 
1.689720836151e+01 1.000000000000e+00 
1.727234056739e+01 1.000000000000e+00 
1.727234056739e+01 1.000000000000e+00 
1.764372145159e+01 1.000000000000e+00 
1.764372145159e+01 1.000000000000e+00 
1.801138852555e+01 1.000000000000e+00 
1.801138852555e+01 1.000000000000e+00 
1.837537892864e+01 1.000000000000e+00 
1.837537892864e+01 1.000000000000e+00 
1.873572942807e+01 1.000000000000e+00 
1.873572942807e+01 1.000000000000e+00 
1.909247642267e+01 1.000000000000e+00 
1.909247642267e+01 1.000000000000e+00 
1.944565594642e+01 1.000000000000e+00 
1.944565594642e+01 1.000000000000e+00 
1.979530367209e+01 1.000000000000e+00 
1.979530367209e+01 1.000000000000e+00 
2.014145492208e+01 1.000000000000e+00 
2.014145492208e+01 1.000000000000e+00 
2.048414466058e+01 1.000000000000e+00 
2.048414466058e+01 1.000000000000e+00 
2.082340750076e+01 1.000000000000e+00 
2.082340750076e+01 1.000000000000e+00 
2.115927771161e+01 1.000000000000e+00 
2.115927771161e+01 1.000000000000e+00 
2.149178922127e+01 1.000000000000e+00 
2.149178922127e+01 1.000000000000e+00 
2.182097561621e+01 1.000000000000e+00 
2.182097561621e+01 1.000000000000e+00 
2.214687014446e+01 1.000000000000e+00 
2.214687014446e+01 1.000000000000e+00 
2.246950572974e+01 1.000000000000e+00 
2.246950572974e+01 1.000000000000e+00 
2.278891495927e+01 1.000000000000e+00 
2.278891495927e+01 1.000000000000e+00 
2.310513009435e+01 1.000000000000e+00 
2.310513009435e+01 1.000000000000e+00 
2.341818308041e+01 1.000000000000e+00 
2.341818308041e+01 1.000000000000e+00 
2.372810553851e+01 1.000000000000e+00 
2.372810553851e+01 1.000000000000e+00 
2.403492877185e+01 1.000000000000e+00 
2.403492877185e+01 1.000000000000e+00 
2.433868377201e+01 1.000000000000e+00 
2.433868377201e+01 1.000000000000e+00 
2.463940122147e+01 1.000000000000e+00 
2.463940122147e+01 1.000000000000e+00 
2.493711149608e+01 1.000000000000e+00 
2.493711149608e+01 1.000000000000e+00 
2.523184466745e+01 1.000000000000e+00 
2.523184466745e+01 1.000000000000e+00 
2.552363050527e+01 1.000000000000e+00 
2.552363050527e+01 1.000000000000e+00 
2.581249848333e+01 1.000000000000e+00 
2.581249848333e+01 1.000000000000e+00 
2.609847778178e+01 1.000000000000e+00 
2.609847778178e+01 1.000000000000e+00 
2.638159728912e+01 1.000000000000e+00 
2.638159728912e+01 1.000000000000e+00 
2.666188560445e+01 1.000000000000e+00 
2.666188560445e+01 1.000000000000e+00 
2.693937103568e+01 1.000000000000e+00 
2.693937103568e+01 1.000000000000e+00 
2.721408160901e+01 1.000000000000e+00 
2.721408160901e+01 1.000000000000e+00 
2.748604507877e+01 1.000000000000e+00 
2.748604507877e+01 1.000000000000e+00 
2.775528891688e+01 1.000000000000e+00 
2.775528891688e+01 1.000000000000e+00 
2.802184031589e+01 1.000000000000e+00 
2.802184031589e+01 1.000000000000e+00 
2.828572620141e+01 1.000000000000e+00 
2.828572620141e+01 1.000000000000e+00 
2.854697322636e+01 1.000000000000e+00 
2.854697322636e+01 1.000000000000e+00 
2.880560778016e+01 1.000000000000e+00 
2.880560778016e+01 1.000000000000e+00 
2.906165599024e+01 1.000000000000e+00 
2.906165599024e+01 1.000000000000e+00 
2.931514371614e+01 1.000000000000e+00 
2.931514371614e+01 1.000000000000e+00 
2.956609656599e+01 1.000000000000e+00 
2.956609656599e+01 1.000000000000e+00 
2.981453988641e+01 1.000000000000e+00 
2.981453988641e+01 1.000000000000e+00 
3.006049877248e+01 1.000000000000e+00 
3.006049877248e+01 1.000000000000e+00 
3.030399807077e+01 1.000000000000e+00 
3.030399807077e+01 1.000000000000e+00 
3.054506237510e+01 1.000000000000e+00 
3.054506237510e+01 1.000000000000e+00 
3.078371603804e+01 1.000000000000e+00 
3.078371603804e+01 1.000000000000e+00 
3.101998316474e+01 1.000000000000e+00 
3.101998316474e+01 1.000000000000e+00 
3.125388761788e+01 1.000000000000e+00 
3.125388761788e+01 1.000000000000e+00 
3.148545302621e+01 1.000000000000e+00 
3.148545302621e+01 1.000000000000e+00 
3.171470278178e+01 1.000000000000e+00 
3.171470278178e+01 1.000000000000e+00 
3.194166004093e+01 1.000000000000e+00 
3.194166004093e+01 1.000000000000e+00 
3.216634772905e+01 1.000000000000e+00 
3.216634772905e+01 1.000000000000e+00 
3.238878854137e+01 1.000000000000e+00 
3.238878854137e+01 1.000000000000e+00 
3.260900494388e+01 1.000000000000e+00 
3.260900494388e+01 1.000000000000e+00 
3.282701918161e+01 1.000000000000e+00 
3.282701918161e+01 1.000000000000e+00 
3.304285327554e+01 1.000000000000e+00 
3.304285327554e+01 1.000000000000e+00 
3.325652902722e+01 1.000000000000e+00 
3.325652902722e+01 1.000000000000e+00 
3.346806802295e+01 1.000000000000e+00 
3.346806802295e+01 1.000000000000e+00 
3.367749163080e+01 1.000000000000e+00 
3.367749163080e+01 1.000000000000e+00 
3.388482100116e+01 1.000000000000e+00 
3.388482100116e+01 1.000000000000e+00 
3.409007707479e+01 1.000000000000e+00 
3.409007707479e+01 1.000000000000e+00 
3.429328059074e+01 1.000000000000e+00 
3.429328059074e+01 1.000000000000e+00 
3.449445207175e+01 1.000000000000e+00 
3.449445207175e+01 1.000000000000e+00 
3.469361183610e+01 1.000000000000e+00 
3.469361183610e+01 1.000000000000e+00 
3.489078000522e+01 1.000000000000e+00 
3.489078000522e+01 1.000000000000e+00 
3.508597649293e+01 1.000000000000e+00 
3.508597649293e+01 1.000000000000e+00 
3.527922101316e+01 1.000000000000e+00 
3.527922101316e+01 1.000000000000e+00 
3.547053308772e+01 1.000000000000e+00 
3.547053308772e+01 1.000000000000e+00 
3.565993204265e+01 1.000000000000e+00 
3.565993204265e+01 1.000000000000e+00 
3.584743700848e+01 1.000000000000e+00 
3.584743700848e+01 1.000000000000e+00 
3.603306692405e+01 1.000000000000e+00 
3.603306692405e+01 1.000000000000e+00 
3.621684054035e+01 1.000000000000e+00 
3.621684054035e+01 1.000000000000e+00 
3.639877642056e+01 1.000000000000e+00 
3.639877642056e+01 1.000000000000e+00 
3.657889293994e+01 1.000000000000e+00 
3.657889293994e+01 1.000000000000e+00 
3.675720829391e+01 1.000000000000e+00 
3.675720829391e+01 1.000000000000e+00 
3.693374049671e+01 1.000000000000e+00 
3.693374049671e+01 1.000000000000e+00 
3.710850737877e+01 1.000000000000e+00 
3.710850737877e+01 1.000000000000e+00 
3.728152658979e+01 1.000000000000e+00 
3.728152658979e+01 1.000000000000e+00 
3.745281560988e+01 1.000000000000e+00 
3.745281560988e+01 1.000000000000e+00 
3.762239174177e+01 1.000000000000e+00 
3.762239174177e+01 1.000000000000e+00 
3.779027211067e+01 1.000000000000e+00 
3.779027211067e+01 1.000000000000e+00 
3.795647367521e+01 1.000000000000e+00 
3.795647367521e+01 1.000000000000e+00 
3.812101322331e+01 1.000000000000e+00 
3.812101322331e+01 1.000000000000e+00 
3.828390737565e+01 1.000000000000e+00 
3.828390737565e+01 1.000000000000e+00 
3.844517258894e+01 1.000000000000e+00 
3.844517258894e+01 1.000000000000e+00 
3.860482515178e+01 1.000000000000e+00 
3.860482515178e+01 1.000000000000e+00 
3.876288118803e+01 1.000000000000e+00 
3.876288118803e+01 1.000000000000e+00 
3.891935666376e+01 1.000000000000e+00 
3.891935666376e+01 1.000000000000e+00 
3.907426738294e+01 1.000000000000e+00 
3.907426738294e+01 1.000000000000e+00 
3.922762899449e+01 1.000000000000e+00 
3.922762899449e+01 1.000000000000e+00 
3.937945699157e+01 1.000000000000e+00 
3.937945699157e+01 1.000000000000e+00 
3.952976670727e+01 1.000000000000e+00 
3.952976670727e+01 1.000000000000e+00 
3.967857332527e+01 1.000000000000e+00 
3.967857332527e+01 1.000000000000e+00 
3.982589187903e+01 1.000000000000e+00 
3.982589187903e+01 1.000000000000e+00 
3.997173724741e+01 1.000000000000e+00 
3.997173724741e+01 1.000000000000e+00 
4.011612416147e+01 1.000000000000e+00 
4.011612416147e+01 1.000000000000e+00 
4.025906720735e+01 1.000000000000e+00 
4.025906720735e+01 1.000000000000e+00 
4.040058082176e+01 1.000000000000e+00 
4.040058082176e+01 1.000000000000e+00 
4.054067929873e+01 1.000000000000e+00 
4.054067929873e+01 1.000000000000e+00 
4.067937679236e+01 1.000000000000e+00 
4.067937679236e+01 1.000000000000e+00 
4.081668731222e+01 1.000000000000e+00 
4.081668731222e+01 1.000000000000e+00 
4.095262472626e+01 1.000000000000e+00 
4.095262472626e+01 1.000000000000e+00 
4.108720276731e+01 1.000000000000e+00 
4.108720276731e+01 1.000000000000e+00 
4.122043502832e+01 1.000000000000e+00 
4.122043502832e+01 1.000000000000e+00 
4.135233496520e+01 1.000000000000e+00 
4.135233496520e+01 1.000000000000e+00 
4.148291590322e+01 1.000000000000e+00 
4.148291590322e+01 1.000000000000e+00 
4.161219103221e+01 1.000000000000e+00 
4.161219103221e+01 1.000000000000e+00 
4.174017340925e+01 1.000000000000e+00 
4.174017340925e+01 1.000000000000e+00 
4.186687596131e+01 1.000000000000e+00 
4.186687596131e+01 1.000000000000e+00 
4.199231148785e+01 1.000000000000e+00 
4.199231148785e+01 1.000000000000e+00 
4.211649265963e+01 1.000000000000e+00 
4.211649265963e+01 1.000000000000e+00 
4.223943201759e+01 1.000000000000e+00 
4.223943201759e+01 1.000000000000e+00 
4.236114198285e+01 1.000000000000e+00 
4.236114198285e+01 1.000000000000e+00 
4.248163485166e+01 1.000000000000e+00 
4.248163485166e+01 1.000000000000e+00 
4.260092279047e+01 1.000000000000e+00 
4.260092279047e+01 1.000000000000e+00 
4.271901784967e+01 1.000000000000e+00 
4.271901784967e+01 1.000000000000e+00 
4.283593195840e+01 1.000000000000e+00 
4.283593195840e+01 1.000000000000e+00 
4.295167692334e+01 1.000000000000e+00 
4.295167692334e+01 1.000000000000e+00 
4.306626443854e+01 1.000000000000e+00 
4.306626443854e+01 1.000000000000e+00 
4.317970608023e+01 1.000000000000e+00 
4.317970608023e+01 1.000000000000e+00 
4.329201330550e+01 1.000000000000e+00 
4.329201330550e+01 1.000000000000e+00 
4.340319745833e+01 1.000000000000e+00 
4.340319745833e+01 1.000000000000e+00 
4.351326977187e+01 1.000000000000e+00 
4.351326977187e+01 1.000000000000e+00 
4.362224136320e+01 1.000000000000e+00 
4.362224136320e+01 1.000000000000e+00 
4.373012323567e+01 1.000000000000e+00 
4.373012323567e+01 1.000000000000e+00 
4.383692628857e+01 1.000000000000e+00 
4.383692628857e+01 1.000000000000e+00 
4.394266131175e+01 1.000000000000e+00 
4.394266131175e+01 1.000000000000e+00 
4.404733898418e+01 1.000000000000e+00 
4.404733898418e+01 1.000000000000e+00 
4.415096987977e+01 1.000000000000e+00 
4.415096987977e+01 1.000000000000e+00 
4.425356446581e+01 1.000000000000e+00 
4.425356446581e+01 1.000000000000e+00 
4.435513310507e+01 1.000000000000e+00 
4.435513310507e+01 1.000000000000e+00 
4.445568605787e+01 1.000000000000e+00 
4.445568605787e+01 1.000000000000e+00 
4.455523348420e+01 1.000000000000e+00 
4.455523348420e+01 1.000000000000e+00 
4.465378543817e+01 1.000000000000e+00 
4.465378543817e+01 1.000000000000e+00 
4.475135187021e+01 1.000000000000e+00 
4.475135187021e+01 1.000000000000e+00 
4.484794263652e+01 1.000000000000e+00 
4.484794263652e+01 1.000000000000e+00 
4.494356749723e+01 1.000000000000e+00 
4.494356749723e+01 1.000000000000e+00 
4.503823611090e+01 1.000000000000e+00 
4.503823611090e+01 1.000000000000e+00 
4.513195803658e+01 1.000000000000e+00 
4.513195803658e+01 1.000000000000e+00 
4.522474274315e+01 1.000000000000e+00 
4.522474274315e+01 1.000000000000e+00 
4.531659960371e+01 1.000000000000e+00 
4.531659960371e+01 1.000000000000e+00 
4.540753789381e+01 1.000000000000e+00 
4.540753789381e+01 1.000000000000e+00 
4.549756680079e+01 1.000000000000e+00 
4.549756680079e+01 1.000000000000e+00 
4.558669541809e+01 1.000000000000e+00 
4.558669541809e+01 1.000000000000e+00 
4.567493274718e+01 1.000000000000e+00 
4.567493274718e+01 1.000000000000e+00 
4.576228770304e+01 1.000000000000e+00 
4.576228770304e+01 1.000000000000e+00 
4.584876911224e+01 1.000000000000e+00 
4.584876911224e+01 1.000000000000e+00 
4.593438570720e+01 1.000000000000e+00 
4.593438570720e+01 1.000000000000e+00 
4.601914613560e+01 1.000000000000e+00 
4.601914613560e+01 1.000000000000e+00 
4.610305896190e+01 1.000000000000e+00 
4.610305896190e+01 1.000000000000e+00 
4.618613265801e+01 1.000000000000e+00 
4.618613265801e+01 1.000000000000e+00 
4.626837561620e+01 1.000000000000e+00 
4.626837561620e+01 1.000000000000e+00 
4.634979614698e+01 1.000000000000e+00 
4.634979614698e+01 1.000000000000e+00 
4.643040247333e+01 1.000000000000e+00 
4.643040247333e+01 1.000000000000e+00 
4.651020273612e+01 1.000000000000e+00 
4.651020273612e+01 1.000000000000e+00 
4.658920499579e+01 1.000000000000e+00 
4.658920499579e+01 1.000000000000e+00 
4.666741723389e+01 1.000000000000e+00 
4.666741723389e+01 1.000000000000e+00 
4.674484735100e+01 1.000000000000e+00 
4.674484735100e+01 1.000000000000e+00 
4.682150316457e+01 1.000000000000e+00 
4.682150316457e+01 1.000000000000e+00 
4.689739241807e+01 1.000000000000e+00 
4.689739241807e+01 1.000000000000e+00 
4.697252277866e+01 1.000000000000e+00 
4.697252277866e+01 1.000000000000e+00 
4.704690183510e+01 1.000000000000e+00 
4.704690183510e+01 1.000000000000e+00 
4.712053710297e+01 1.000000000000e+00 
4.712053710297e+01 1.000000000000e+00 
4.719343601870e+01 1.000000000000e+00 
4.719343601870e+01 1.000000000000e+00 
4.726560594489e+01 1.000000000000e+00 
4.726560594489e+01 1.000000000000e+00 
4.733705417173e+01 1.000000000000e+00 
4.733705417173e+01 1.000000000000e+00 
4.740778791477e+01 1.000000000000e+00 
4.740778791477e+01 1.000000000000e+00 
4.747781432010e+01 1.000000000000e+00 
4.747781432010e+01 1.000000000000e+00 
4.754714046201e+01 1.000000000000e+00 
4.754714046201e+01 1.000000000000e+00 
4.761577334449e+01 1.000000000000e+00 
4.761577334449e+01 1.000000000000e+00 
4.768371989882e+01 1.000000000000e+00 
4.768371989882e+01 1.000000000000e+00 
4.775098698509e+01 1.000000000000e+00 
4.775098698509e+01 1.000000000000e+00 
4.781758140100e+01 1.000000000000e+00 
4.781758140100e+01 1.000000000000e+00 
4.788350987569e+01 1.000000000000e+00 
4.788350987569e+01 1.000000000000e+00 
4.794877906368e+01 1.000000000000e+00 
4.794877906368e+01 1.000000000000e+00 
4.801339555752e+01 1.000000000000e+00 
4.801339555752e+01 1.000000000000e+00 
4.807736588897e+01 1.000000000000e+00 
4.807736588897e+01 1.000000000000e+00 
4.814069651914e+01 1.000000000000e+00 
4.814069651914e+01 1.000000000000e+00 
4.820339383970e+01 1.000000000000e+00 
4.820339383970e+01 1.000000000000e+00 
4.826546418609e+01 1.000000000000e+00 
4.826546418609e+01 1.000000000000e+00 
4.832691382989e+01 1.000000000000e+00 
4.832691382989e+01 1.000000000000e+00 
4.838774897775e+01 1.000000000000e+00 
4.838774897775e+01 1.000000000000e+00 
4.844797577565e+01 1.000000000000e+00 
4.844797577565e+01 1.000000000000e+00 
4.850760030272e+01 1.000000000000e+00 
4.850760030272e+01 1.000000000000e+00 
4.856662858440e+01 1.000000000000e+00 
4.856662858440e+01 1.000000000000e+00 
4.862506658469e+01 1.000000000000e+00 
4.862506658469e+01 1.000000000000e+00 
4.868292020509e+01 1.000000000000e+00 
4.868292020509e+01 1.000000000000e+00 
4.874019528879e+01 1.000000000000e+00 
4.874019528879e+01 1.000000000000e+00 
4.879689762203e+01 1.000000000000e+00 
4.879689762203e+01 1.000000000000e+00 
4.885303293148e+01 1.000000000000e+00 
4.885303293148e+01 1.000000000000e+00 
4.890860688544e+01 1.000000000000e+00 
4.890860688544e+01 1.000000000000e+00 
4.896362510248e+01 1.000000000000e+00 
4.896362510248e+01 1.000000000000e+00 
4.901809313747e+01 1.000000000000e+00 
4.901809313747e+01 1.000000000000e+00 
4.907201649040e+01 1.000000000000e+00 
4.907201649040e+01 1.000000000000e+00 
4.912540061108e+01 1.000000000000e+00 
4.912540061108e+01 1.000000000000e+00 
4.917825088901e+01 1.000000000000e+00 
4.917825088901e+01 1.000000000000e+00 
4.923057266597e+01 1.000000000000e+00 
4.923057266597e+01 1.000000000000e+00 
4.928237122526e+01 1.000000000000e+00 
4.928237122526e+01 1.000000000000e+00 
4.933365179723e+01 1.000000000000e+00 
4.933365179723e+01 1.000000000000e+00 
4.938441956358e+01 1.000000000000e+00 
4.938441956358e+01 1.000000000000e+00 
4.943467965118e+01 1.000000000000e+00 
4.943467965118e+01 1.000000000000e+00 
4.948443714043e+01 1.000000000000e+00 
4.948443714043e+01 1.000000000000e+00 
4.953369705510e+01 1.000000000000e+00 
4.953369705510e+01 1.000000000000e+00 
4.958246437093e+01 1.000000000000e+00 
4.958246437093e+01 1.000000000000e+00 
4.963074401274e+01 1.000000000000e+00 
4.963074401274e+01 1.000000000000e+00 
4.967854085565e+01 1.000000000000e+00 
4.967854085565e+01 1.000000000000e+00 
4.972585973323e+01 1.000000000000e+00 
4.972585973323e+01 1.000000000000e+00 
4.977270542373e+01 1.000000000000e+00 
4.977270542373e+01 1.000000000000e+00 
4.981908265477e+01 1.000000000000e+00 
4.981908265477e+01 1.000000000000e+00 
4.986499611176e+01 1.000000000000e+00 
4.986499611176e+01 1.000000000000e+00 
4.991045043505e+01 1.000000000000e+00 
4.991045043505e+01 1.000000000000e+00 
4.995545021718e+01 1.000000000000e+00 
4.995545021718e+01 1.000000000000e+00 
5.000000000000e+01 1.000000000000e+00 
5.000000000000e+01 1.000000000000e+00 
 TITLE = "Profiles along polylines"
 VARIABLES = "DIST" "SATURATION1" 
 ZONE T="TIME=1.797693134862e+308"
0.000000000000e+00 1.000000000000e+00 
0.000000000000e+00 1.000000000000e+00 
5.441042851206e-01 1.000000000000e+00 
5.441042851206e-01 1.000000000000e+00 
1.082767527447e+00 1.000000000000e+00 
1.082767527447e+00 1.000000000000e+00 
1.616044136177e+00 1.000000000000e+00 
1.616044136177e+00 1.000000000000e+00 
2.143987978862e+00 1.000000000000e+00 
2.143987978862e+00 1.000000000000e+00 
2.666652384904e+00 1.000000000000e+00 
2.666652384904e+00 1.000000000000e+00 
3.184090148728e+00 1.000000000000e+00 
3.184090148728e+00 1.000000000000e+00 
3.696353533103e+00 1.000000000000e+00 
3.696353533103e+00 1.000000000000e+00 
4.203494283380e+00 1.000000000000e+00 
4.203494283380e+00 1.000000000000e+00 
4.705563626669e+00 1.000000000000e+00 
4.705563626669e+00 1.000000000000e+00 
5.202612278494e+00 1.000000000000e+00 
5.202612278494e+00 1.000000000000e+00 
5.694690445536e+00 1.000000000000e+00 
5.694690445536e+00 1.000000000000e+00 
6.181847828274e+00 1.000000000000e+00 
6.181847828274e+00 1.000000000000e+00 
6.664133634867e+00 1.000000000000e+00 
6.664133634867e+00 1.000000000000e+00 
7.141596583478e+00 1.000000000000e+00 
7.141596583478e+00 1.000000000000e+00 
7.614284904664e+00 1.000000000000e+00 
7.614284904664e+00 1.000000000000e+00 
8.082246343617e+00 1.000000000000e+00 
8.082246343617e+00 1.000000000000e+00 
8.545528166141e+00 1.000000000000e+00 
8.545528166141e+00 1.000000000000e+00 
9.004177171908e+00 1.000000000000e+00 
9.004177171908e+00 1.000000000000e+00 
9.458239688845e+00 1.000000000000e+00 
9.458239688845e+00 1.000000000000e+00 
9.907761578910e+00 1.000000000000e+00 
9.907761578910e+00 1.000000000000e+00 
1.035278825100e+01 1.000000000000e+00 
1.035278825100e+01 1.000000000000e+00 
1.079336465513e+01 1.000000000000e+00 
1.079336465513e+01 1.000000000000e+00 
1.122953529539e+01 1.000000000000e+00 
1.122953529539e+01 1.000000000000e+00 
1.166134423122e+01 1.000000000000e+00 
1.166134423122e+01 1.000000000000e+00 
1.208883507532e+01 1.000000000000e+00 
1.208883507532e+01 1.000000000000e+00 
1.251205100982e+01 1.000000000000e+00 
1.251205100982e+01 1.000000000000e+00 
1.293103478751e+01 1.000000000000e+00 
1.293103478751e+01 1.000000000000e+00 
1.334582872926e+01 1.000000000000e+00 
1.334582872926e+01 1.000000000000e+00 
1.375647472886e+01 1.000000000000e+00 
1.375647472886e+01 1.000000000000e+00 
1.416301426525e+01 1.000000000000e+00 
1.416301426525e+01 1.000000000000e+00 
1.456548840709e+01 1.000000000000e+00 
1.456548840709e+01 1.000000000000e+00 
1.496393780979e+01 1.000000000000e+00 
1.496393780979e+01 1.000000000000e+00 
1.535840272005e+01 1.000000000000e+00 
1.535840272005e+01 1.000000000000e+00 
1.574892298024e+01 1.000000000000e+00 
1.574892298024e+01 1.000000000000e+00 
1.613553803648e+01 1.000000000000e+00 
1.613553803648e+01 1.000000000000e+00 
1.651828694278e+01 1.000000000000e+00 
1.651828694278e+01 1.000000000000e+00 
1.689720836151e+01 1.000000000000e+00 
1.689720836151e+01 1.000000000000e+00 
1.727234056739e+01 1.000000000000e+00 
1.727234056739e+01 1.000000000000e+00 
1.764372145159e+01 1.000000000000e+00 
1.764372145159e+01 1.000000000000e+00 
1.801138852555e+01 1.000000000000e+00 
1.801138852555e+01 1.000000000000e+00 
1.837537892864e+01 1.000000000000e+00 
1.837537892864e+01 1.000000000000e+00 
1.873572942807e+01 9.738961678976e-01 
1.873572942807e+01 9.794194629880e-01 
1.909247642267e+01 8.947351176436e-01 
1.909247642267e+01 9.001573908641e-01 
1.944565594642e+01 8.284999420886e-01 
1.944565594642e+01 8.329303954270e-01 
1.979530367209e+01 7.755182755949e-01 
1.979530367209e+01 7.791068871626e-01 
2.014145492208e+01 7.328392738128e-01 
2.014145492208e+01 7.357897853222e-01 
2.048414466058e+01 6.978336731167e-01 
2.048414466058e+01 7.003052613037e-01 
2.082340750076e+01 6.685816536723e-01 
2.082340750076e+01 6.706887119485e-01 
2.115927771161e+01 6.437241994271e-01 
2.115927771161e+01 6.455483672981e-01 
2.149178922127e+01 6.222922089431e-01 
2.149178922127e+01 6.238925370132e-01 
2.182097561621e+01 6.035821390855e-01 
2.182097561621e+01 6.050021545108e-01 
2.214687014446e+01 5.870728144213e-01 
2.214687014446e+01 5.883452358088e-01 
2.246950572974e+01 5.723704770952e-01 
2.246950572974e+01 5.735203593479e-01 
2.278891495927e+01 5.591721553426e-01 
2.278891495927e+01 5.602190146304e-01 
2.310513009435e+01 5.472408314180e-01 
2.310513009435e+01 5.482001062786e-01 
2.341818308041e+01 5.363882887202e-01 
2.341818308041e+01 5.372723634252e-01 
2.372810553851e+01 5.264630379352e-01 
2.372810553851e+01 5.272819723454e-01 
2.403492877185e+01 5.173416624281e-01 
2.403492877185e+01 5.181037215042e-01 
2.433868377201e+01 5.089225091534e-01 
2.433868377201e+01 5.096345532920e-01 
2.463940122147e+01 5.011210168800e-01 
2.463940122147e+01 5.017887939367e-01 
2.493711149608e+01 4.938662063947e-01 
2.493711149608e+01 4.944945731493e-01 
2.523184466745e+01 4.870980083625e-01 
2.523184466745e+01 4.876911005980e-01 
2.552363050527e+01 4.807652038548e-01 
2.552363050527e+01 4.813265684933e-01 
2.581249848333e+01 4.748238189807e-01 
2.581249848333e+01 4.753565178454e-01 
2.609847778178e+01 4.692358605197e-01 
2.609847778178e+01 4.697425526264e-01 
2.638159728912e+01 4.639683104229e-01 
2.638159728912e+01 4.644513178451e-01 
2.666188560445e+01 4.589923190010e-01 
2.666188560445e+01 4.594536800378e-01 
2.693937103568e+01 4.547240646549e-01 
2.693937103568e+01 4.542825522183e-01 
2.721408160901e+01 4.502399158994e-01 
2.721408160901e+01 4.498166593316e-01 
2.748604507877e+01 4.455748357028e-01 
2.748604507877e+01 4.459812533456e-01 
2.775528891688e+01 4.415394616546e-01 
2.775528891688e+01 4.419303058409e-01 
2.802184031589e+01 4.376948017983e-01 
2.802184031589e+01 4.380712068404e-01 
2.828572620141e+01 4.340267532768e-01 
2.828572620141e+01 4.343897394084e-01 
2.854697322636e+01 4.305226341430e-01 
2.854697322636e+01 4.308731219497e-01 
2.880560778016e+01 4.271710041409e-01 
2.880560778016e+01 4.275098268158e-01 
2.906165599024e+01 4.239615124498e-01 
2.906165599024e+01 4.242894262512e-01 
2.931514371614e+01 4.208847677309e-01 
2.931514371614e+01 4.212024609457e-01 
2.956609656599e+01 4.179322263882e-01 
2.956609656599e+01 4.182403270475e-01 
2.981453988641e+01 4.150960966217e-01 
2.981453988641e+01 4.153951791694e-01 
3.006049877248e+01 4.123692552271e-01 
3.006049877248e+01 4.126598463046e-01 
3.030399807077e+01 4.097451754532e-01 
3.030399807077e+01 4.100277589363e-01 
3.054506237510e+01 4.072178642304e-01 
3.054506237510e+01 4.074928856302e-01 
3.078371603804e+01 4.047818071437e-01 
3.078371603804e+01 4.050496774643e-01 
3.101998316474e+01 4.024319203558e-01 
3.101998316474e+01 4.026930194861e-01 
3.125388761788e+01 4.001635082088e-01 
3.125388761788e+01 4.004181879143e-01 
3.148545302621e+01 3.979722257904e-01 
3.148545302621e+01 3.982208123589e-01 
3.171470278178e+01 3.958540459205e-01 
3.171470278178e+01 3.960968425089e-01 
3.194166004093e+01 3.938052298335e-01 
3.194166004093e+01 3.940425185541e-01 
3.216634772905e+01 3.918223010723e-01 
3.216634772905e+01 3.920543448530e-01 
3.238878854137e+01 3.899020222485e-01 
3.238878854137e+01 3.901290664948e-01 
3.260900494388e+01 3.880413742740e-01 
3.260900494388e+01 3.882636483575e-01 
3.282701918161e+01 3.862375376990e-01 
3.282701918161e+01 3.864552562933e-01 
3.304285327554e+01 3.844878760538e-01 
3.304285327554e+01 3.847012403363e-01 
3.325652902722e+01 3.827899208031e-01 
3.325652902722e+01 3.829991195384e-01 
3.346806802295e+01 3.811413577889e-01 
3.346806802295e+01 3.813465683067e-01 
3.367749163080e+01 3.795400150429e-01 
3.367749163080e+01 3.797414041236e-01 
3.388482100116e+01 3.779838517329e-01 
3.388482100116e+01 3.781815764095e-01 
3.409007707479e+01 3.764709480883e-01 
3.409007707479e+01 3.766651563753e-01 
3.429328059074e+01 3.749994962560e-01 
3.429328059074e+01 3.751903278121e-01 
3.449445207175e+01 3.735677921424e-01 
3.449445207175e+01 3.737553788741e-01 
3.469361183610e+01 3.721742277972e-01 
3.469361183610e+01 3.723586944100e-01 
3.489078000522e+01 3.708172844941e-01 
3.489078000522e+01 3.709987489962e-01 
3.508597649293e+01 3.694955265325e-01 
3.508597649293e+01 3.696741006954e-01 
3.527922101316e+01 3.682075954411e-01 
3.527922101316e+01 3.683833852228e-01 
3.547053308772e+01 3.669522046678e-01 
3.547053308772e+01 3.671253105998e-01 
3.565993204265e+01 3.657281347784e-01 
3.565993204265e+01 3.658986523229e-01 
3.584743700848e+01 3.645342290216e-01 
3.584743700848e+01 3.647022488990e-01 
3.603306692405e+01 3.633693892243e-01 
3.603306692405e+01 3.635349977160e-01 
3.621684054035e+01 3.622325720113e-01 
3.621684054035e+01 3.623958512383e-01 
3.639877642056e+01 3.611227853413e-01 
3.639877642056e+01 3.612838135222e-01 
3.657889293994e+01 3.600390853088e-01 
3.657889293994e+01 3.601979369978e-01 
3.675720829391e+01 3.589805731390e-01 
3.675720829391e+01 3.591373194466e-01 
3.693374049671e+01 3.579463924614e-01 
3.693374049671e+01 3.581011012591e-01 
3.710850737877e+01 3.569357267911e-01 
3.710850737877e+01 3.570884629007e-01 
3.728152658979e+01 3.559477971598e-01 
3.728152658979e+01 3.560986225301e-01 
3.745281560988e+01 3.549818598717e-01 
3.745281560988e+01 3.551308337420e-01 
3.762239174177e+01 3.540372045217e-01 
3.762239174177e+01 3.541843835746e-01 
3.779027211067e+01 3.531131521110e-01 
3.779027211067e+01 3.532585906141e-01 
3.795647367521e+01 3.522090532309e-01 
3.795647367521e+01 3.523528031698e-01 
3.812101322331e+01 3.513242864524e-01 
3.812101322331e+01 3.514663976536e-01 
3.828390737565e+01 3.504582567818e-01 
3.828390737565e+01 3.505987770286e-01 
3.844517258894e+01 3.496103942209e-01 
3.844517258894e+01 3.497493693614e-01 
3.860482515178e+01 3.487801524597e-01 
3.860482515178e+01 3.489176265075e-01 
3.876288118803e+01 3.479670076145e-01 
3.876288118803e+01 3.481030228436e-01 
3.891935666376e+01 3.471704570294e-01 
3.891935666376e+01 3.473050540626e-01 
3.907426738294e+01 3.463900182092e-01 
3.907426738294e+01 3.465232361014e-01 
3.922762899449e+01 3.456252277634e-01 
3.922762899449e+01 3.457571040795e-01 
3.937945699157e+01 3.448756404530e-01 
3.937945699157e+01 3.450062113413e-01 
3.952976670727e+01 3.441408283126e-01 
3.952976670727e+01 3.442701285739e-01 
3.967857332527e+01 3.434203797548e-01 