 TITLE = "Profiles along polylines"
 VARIABLES = "DIST" "SATURATION1" 
 ZONE T="TIME=0.000000000000e+00"
0.000000000000e+00 1.000000000000e+00 
5.441042851206e-01 1.000000000000e+00 
1.082767527447e+00 1.000000000000e+00 
1.616044136177e+00 1.000000000000e+00 
2.143987978862e+00 1.000000000000e+00 
2.666652384904e+00 1.000000000000e+00 
3.184090148728e+00 1.000000000000e+00 
3.696353533103e+00 1.000000000000e+00 
4.203494283380e+00 1.000000000000e+00 
4.705563626669e+00 1.000000000000e+00 
5.202612278494e+00 1.000000000000e+00 
5.694690445536e+00 1.000000000000e+00 
6.181847828274e+00 1.000000000000e+00 
6.664133634867e+00 1.000000000000e+00 
7.141596583478e+00 1.000000000000e+00 
7.614284904664e+00 1.000000000000e+00 
8.082246343617e+00 1.000000000000e+00 
8.545528166141e+00 1.000000000000e+00 
9.004177171908e+00 1.000000000000e+00 
9.458239688845e+00 1.000000000000e+00 
9.907761578910e+00 1.000000000000e+00 
1.035278825100e+01 1.000000000000e+00 
1.079336465513e+01 1.000000000000e+00 
1.122953529539e+01 1.000000000000e+00 
1.166134423122e+01 1.000000000000e+00 
1.208883507532e+01 1.000000000000e+00 
1.251205100982e+01 1.000000000000e+00 
1.293103478751e+01 1.000000000000e+00 
1.334582872926e+01 1.000000000000e+00 
1.375647472886e+01 1.000000000000e+00 
1.416301426525e+01 1.000000000000e+00 
1.456548840709e+01 1.000000000000e+00 
1.496393780979e+01 1.000000000000e+00 
1.535840272005e+01 1.000000000000e+00 
1.574892298024e+01 1.000000000000e+00 
1.613553803648e+01 1.000000000000e+00 
1.651828694278e+01 1.000000000000e+00 
1.689720836151e+01 1.000000000000e+00 
1.727234056739e+01 1.000000000000e+00 
1.764372145159e+01 1.000000000000e+00 
1.801138852555e+01 1.000000000000e+00 
1.837537892864e+01 1.000000000000e+00 
1.873572942807e+01 1.000000000000e+00 
1.909247642267e+01 1.000000000000e+00 
1.944565594642e+01 1.000000000000e+00 
1.979530367209e+01 1.000000000000e+00 
2.014145492208e+01 1.000000000000e+00 
2.048414466058e+01 1.000000000000e+00 
2.082340750076e+01 1.000000000000e+00 
2.115927771161e+01 1.000000000000e+00 
2.149178922127e+01 1.000000000000e+00 
2.182097561621e+01 1.000000000000e+00 
2.214687014446e+01 1.000000000000e+00 
2.246950572974e+01 1.000000000000e+00 
2.278891495927e+01 1.000000000000e+00 
2.310513009435e+01 1.000000000000e+00 
2.341818308041e+01 1.000000000000e+00 
2.372810553851e+01 1.000000000000e+00 
2.403492877185e+01 1.000000000000e+00 
2.433868377201e+01 1.000000000000e+00 
2.463940122147e+01 1.000000000000e+00 
2.493711149608e+01 1.000000000000e+00 
2.523184466745e+01 1.000000000000e+00 
2.552363050527e+01 1.000000000000e+00 
2.581249848333e+01 1.000000000000e+00 
2.609847778178e+01 1.000000000000e+00 
2.638159728912e+01 1.000000000000e+00 
2.666188560445e+01 1.000000000000e+00 
2.693937103568e+01 1.000000000000e+00 
2.721408160901e+01 1.000000000000e+00 
2.748604507877e+01 1.000000000000e+00 
2.775528891688e+01 1.000000000000e+00 
2.802184031589e+01 1.000000000000e+00 
2.828572620141e+01 1.000000000000e+00 
2.854697322636e+01 1.000000000000e+00 
2.880560778016e+01 1.000000000000e+00 
2.906165599024e+01 1.000000000000e+00 
2.931514371614e+01 1.000000000000e+00 
2.956609656599e+01 1.000000000000e+00 
2.981453988641e+01 1.000000000000e+00 
3.006049877248e+01 1.000000000000e+00 
3.030399807077e+01 1.000000000000e+00 
3.054506237510e+01 1.000000000000e+00 
3.078371603804e+01 1.000000000000e+00 
3.101998316474e+01 1.000000000000e+00 
3.125388761788e+01 1.000000000000e+00 
3.148545302621e+01 1.000000000000e+00 
3.171470278178e+01 1.000000000000e+00 
3.194166004093e+01 1.000000000000e+00 
3.216634772905e+01 1.000000000000e+00 
3.238878854137e+01 1.000000000000e+00 
3.260900494388e+01 1.000000000000e+00 
3.282701918161e+01 1.000000000000e+00 
3.304285327554e+01 1.000000000000e+00 
3.325652902722e+01 1.000000000000e+00 
3.346806802295e+01 1.000000000000e+00 
3.367749163080e+01 1.000000000000e+00 
3.388482100116e+01 1.000000000000e+00 
3.409007707479e+01 1.000000000000e+00 
3.429328059074e+01 1.000000000000e+00 
3.449445207175e+01 1.000000000000e+00 
3.469361183610e+01 1.000000000000e+00 
3.489078000522e+01 1.000000000000e+00 
3.508597649293e+01 1.000000000000e+00 
3.527922101316e+01 1.000000000000e+00 
3.547053308772e+01 1.000000000000e+00 
3.565993204265e+01 1.000000000000e+00 
3.584743700848e+01 1.000000000000e+00 
3.603306692405e+01 1.000000000000e+00 
3.621684054035e+01 1.000000000000e+00 
3.639877642056e+01 1.000000000000e+00 
3.657889293994e+01 1.000000000000e+00 
3.675720829391e+01 1.000000000000e+00 
3.693374049671e+01 1.000000000000e+00 
3.710850737877e+01 1.000000000000e+00 
3.728152658979e+01 1.000000000000e+00 
3.745281560988e+01 1.000000000000e+00 
3.762239174177e+01 1.000000000000e+00 
3.779027211067e+01 1.000000000000e+00 
3.795647367521e+01 1.000000000000e+00 
3.812101322331e+01 1.000000000000e+00 
3.828390737565e+01 1.000000000000e+00 
3.844517258894e+01 1.000000000000e+00 
3.860482515178e+01 1.000000000000e+00 
3.876288118803e+01 1.000000000000e+00 
3.891935666376e+01 1.000000000000e+00 
3.907426738294e+01 1.000000000000e+00 
3.922762899449e+01 1.000000000000e+00 
3.937945699157e+01 1.000000000000e+00 
3.952976670727e+01 1.000000000000e+00 
3.967857332527e+01 1.000000000000e+00 
3.982589187903e+01 1.000000000000e+00 
3.997173724741e+01 1.000000000000e+00 
4.011612416147e+01 1.000000000000e+00 
4.025906720735e+01 1.000000000000e+00 
4.040058082176e+01 1.000000000000e+00 
4.054067929873e+01 1.000000000000e+00 
4.067937679236e+01 1.000000000000e+00 
4.081668731222e+01 1.000000000000e+00 
4.095262472626e+01 1.000000000000e+00 
4.108720276731e+01 1.000000000000e+00 
4.122043502832e+01 1.000000000000e+00 
4.135233496520e+01 1.000000000000e+00 
4.148291590322e+01 1.000000000000e+00 
4.161219103221e+01 1.000000000000e+00 
4.174017340925e+01 1.000000000000e+00 
4.186687596131e+01 1.000000000000e+00 
4.199231148785e+01 1.000000000000e+00 
4.211649265963e+01 1.000000000000e+00 
4.223943201759e+01 1.000000000000e+00 
4.236114198285e+01 1.000000000000e+00 
4.248163485166e+01 1.000000000000e+00 
4.260092279047e+01 1.000000000000e+00 
4.271901784967e+01 1.000000000000e+00 
4.283593195840e+01 1.000000000000e+00 
4.295167692334e+01 1.000000000000e+00 
4.306626443854e+01 1.000000000000e+00 
4.317970608023e+01 1.000000000000e+00 
4.329201330550e+01 1.000000000000e+00 
4.340319745833e+01 1.000000000000e+00 
4.351326977187e+01 1.000000000000e+00 
4.362224136320e+01 1.000000000000e+00 
4.373012323567e+01 1.000000000000e+00 
4.383692628857e+01 1.000000000000e+00 
4.394266131175e+01 1.000000000000e+00 
4.404733898418e+01 1.000000000000e+00 
4.415096987977e+01 1.000000000000e+00 
4.425356446581e+01 1.000000000000e+00 
4.435513310507e+01 1.000000000000e+00 
4.445568605787e+01 1.000000000000e+00 
4.455523348420e+01 1.000000000000e+00 
4.465378543817e+01 1.000000000000e+00 
4.475135187021e+01 1.000000000000e+00 
4.484794263652e+01 1.000000000000e+00 
4.494356749723e+01 1.000000000000e+00 
4.503823611090e+01 1.000000000000e+00 
4.513195803658e+01 1.000000000000e+00 
4.522474274315e+01 1.000000000000e+00 
4.531659960371e+01 1.000000000000e+00 
4.540753789381e+01 1.000000000000e+00 
4.549756680079e+01 1.000000000000e+00 
4.558669541809e+01 1.000000000000e+00 
4.567493274718e+01 1.000000000000e+00 
4.576228770304e+01 1.000000000000e+00 
4.584876911224e+01 1.000000000000e+00 
4.593438570720e+01 1.000000000000e+00 
4.601914613560e+01 1.000000000000e+00 
4.610305896190e+01 1.000000000000e+00 
4.618613265801e+01 1.000000000000e+00 
4.626837561620e+01 1.000000000000e+00 
4.634979614698e+01 1.000000000000e+00 
4.643040247333e+01 1.000000000000e+00 
4.651020273612e+01 1.000000000000e+00 
4.658920499579e+01 1.000000000000e+00 
4.666741723389e+01 1.000000000000e+00 
4.674484735100e+01 1.000000000000e+00 
4.682150316457e+01 1.000000000000e+00 
4.689739241807e+01 1.000000000000e+00 
4.697252277866e+01 1.000000000000e+00 
4.704690183510e+01 1.000000000000e+00 
4.712053710297e+01 1.000000000000e+00 
4.719343601870e+01 1.000000000000e+00 
4.726560594489e+01 1.000000000000e+00 
4.733705417173e+01 1.000000000000e+00 
4.740778791477e+01 1.000000000000e+00 
4.747781432010e+01 1.000000000000e+00 
4.754714046201e+01 1.000000000000e+00 
4.761577334449e+01 1.000000000000e+00 
4.768371989882e+01 1.000000000000e+00 
4.775098698509e+01 1.000000000000e+00 
4.781758140100e+01 1.000000000000e+00 
4.788350987569e+01 1.000000000000e+00 
4.794877906368e+01 1.000000000000e+00 
4.801339555752e+01 1.000000000000e+00 
4.807736588897e+01 1.000000000000e+00 
4.814069651914e+01 1.000000000000e+00 
4.820339383970e+01 1.000000000000e+00 
4.826546418609e+01 1.000000000000e+00 
4.832691382989e+01 1.000000000000e+00 
4.838774897775e+01 1.000000000000e+00 
4.844797577565e+01 1.000000000000e+00 
4.850760030272e+01 1.000000000000e+00 
4.856662858440e+01 1.000000000000e+00 
4.862506658469e+01 1.000000000000e+00 
4.868292020509e+01 1.000000000000e+00 
4.874019528879e+01 1.000000000000e+00 
4.879689762203e+01 1.000000000000e+00 
4.885303293148e+01 1.000000000000e+00 
4.890860688544e+01 1.000000000000e+00 
4.896362510248e+01 1.000000000000e+00 
4.901809313747e+01 1.000000000000e+00 
4.907201649040e+01 1.000000000000e+00 
4.912540061108e+01 1.000000000000e+00 
4.917825088901e+01 1.000000000000e+00 
4.923057266597e+01 1.000000000000e+00 
4.928237122526e+01 1.000000000000e+00 
4.933365179723e+01 1.000000000000e+00 
4.938441956358e+01 1.000000000000e+00 
4.943467965118e+01 1.000000000000e+00 
4.948443714043e+01 1.000000000000e+00 
4.953369705510e+01 1.000000000000e+00 
4.958246437093e+01 1.000000000000e+00 
4.963074401274e+01 1.000000000000e+00 
4.967854085565e+01 1.000000000000e+00 
4.972585973323e+01 1.000000000000e+00 
4.977270542373e+01 1.000000000000e+00 
4.981908265477e+01 1.000000000000e+00 
4.986499611176e+01 1.000000000000e+00 
4.991045043505e+01 1.000000000000e+00 
4.995545021718e+01 1.000000000000e+00 
5.000000000000e+01 1.000000000000e+00 
 TITLE = "Profiles along polylines"
 VARIABLES = "DIST" "SATURATION1" 
 ZONE T="TIME=1.797693134862e+308"
0.000000000000e+00 1.000000000000e+00 
5.441042851206e-01 1.000000000000e+00 
1.082767527447e+00 1.000000000000e+00 
1.616044136177e+00 1.000000000000e+00 
2.143987978862e+00 1.000000000000e+00 
2.666652384904e+00 1.000000000000e+00 
3.184090148728e+00 1.000000000000e+00 
3.696353533103e+00 1.000000000000e+00 
4.203494283380e+00 1.000000000000e+00 
4.705563626669e+00 1.000000000000e+00 
5.202612278494e+00 1.000000000000e+00 
5.694690445536e+00 1.000000000000e+00 
6.181847828274e+00 1.000000000000e+00 
6.664133634867e+00 1.000000000000e+00 
7.141596583478e+00 1.000000000000e+00 
7.614284904664e+00 1.000000000000e+00 
8.082246343617e+00 1.000000000000e+00 
8.545528166141e+00 1.000000000000e+00 
9.004177171908e+00 1.000000000000e+00 
9.458239688845e+00 1.000000000000e+00 
9.907761578910e+00 1.000000000000e+00 
1.035278825100e+01 1.000000000000e+00 
1.079336465513e+01 1.000000000000e+00 
1.122953529539e+01 1.000000000000e+00 
1.166134423122e+01 1.000000000000e+00 
1.208883507532e+01 1.000000000000e+00 
1.251205100982e+01 1.000000000000e+00 
1.293103478751e+01 1.000000000000e+00 
1.334582872926e+01 1.000000000000e+00 
1.375647472886e+01 1.000000000000e+00 
1.416301426525e+01 1.000000000000e+00 
1.456548840709e+01 1.000000000000e+00 
1.496393780979e+01 1.000000000000e+00 
1.535840272005e+01 1.000000000000e+00 
1.574892298024e+01 1.000000000000e+00 
1.613553803648e+01 1.000000000000e+00 
1.651828694278e+01 1.000000000000e+00 
1.689720836151e+01 1.000000000000e+00 
1.727234056739e+01 1.000000000000e+00 
1.764372145159e+01 1.000000000000e+00 
1.801138852555e+01 1.000000000000e+00 
1.837537892864e+01 1.000000000000e+00 
1.873572942807e+01 1.000000000000e+00 
1.909247642267e+01 1.000000000000e+00 
1.944565594642e+01 1.000000000000e+00 
1.979530367209e+01 1.000000000000e+00 
2.014145492208e+01 1.000000000000e+00 
2.048414466058e+01 1.000000000000e+00 
2.082340750076e+01 1.000000000000e+00 
2.115927771161e+01 1.000000000000e+00 
2.149178922127e+01 1.000000000000e+00 
2.182097561621e+01 1.000000000000e+00 
2.214687014446e+01 1.000000000000e+00 
2.246950572974e+01 9.740052546674e-01 
2.278891495927e+01 9.031640637320e-01 
2.310513009435e+01 8.419027357290e-01 
2.341818308041e+01 7.916197397580e-01 
2.372810553851e+01 7.503686476256e-01 
2.403492877185e+01 7.160873330927e-01 
2.433868377201e+01 6.871613977300e-01 
2.463940122147e+01 6.623992750945e-01 
2.493711149608e+01 6.409266180213e-01 
2.523184466745e+01 6.220952353446e-01 
2.552363050527e+01 6.054172042905e-01 
2.581249848333e+01 5.905192076714e-01 
2.609847778178e+01 5.771110602665e-01 
2.638159728912e+01 5.649638376612e-01 
2.666188560445e+01 5.538944738327e-01 
2.693937103568e+01 5.437547496070e-01 
2.721408160901e+01 5.344232984164e-01 
2.748604507877e+01 5.257997162042e-01 
2.775528891688e+01 5.178001608174e-01 
2.802184031589e+01 5.103540197400e-01 
2.828572620141e+01 5.034013557331e-01 
2.854697322636e+01 4.968909269521e-01 
2.880560778016e+01 4.907786352656e-01 
2.906165599024e+01 4.850262986186e-01 
2.931514371614e+01 4.796006708408e-01 
2.956609656599e+01 4.744726517605e-01 
2.981453988641e+01 4.696166465072e-01 
3.006049877248e+01 4.650100411438e-01 
3.030399807077e+01 4.606327709786e-01 
3.054506237510e+01 4.564669628759e-01 
3.078371603804e+01 4.524966367089e-01 
3.101998316474e+01 4.487074552546e-01 
3.125388761788e+01 4.450865131234e-01 
3.148545302621e+01 4.416221578262e-01 
3.171470278178e+01 4.383038375658e-01 
3.194166004093e+01 4.351219709776e-01 
3.216634772905e+01 4.320678351741e-01 
3.238878854137e+01 4.291334692256e-01 
3.260900494388e+01 4.263115905803e-01 
3.282701918161e+01 4.235955223354e-01 
3.304285327554e+01 4.209791299471e-01 
3.325652902722e+01 4.184567657590e-01 
3.346806802295e+01 4.160232203150e-01 
3.367749163080e+01 4.136736795747e-01 
3.388482100116e+01 4.114036870952e-01 
3.409007707479e+01 4.092091104653e-01 
3.429328059074e+01 4.070861115130e-01 
3.449445207175e+01 4.050311200168e-01 
3.469361183610e+01 4.030408099869e-01 
3.489078000522e+01 4.011120784991e-01 
3.508597649293e+01 3.992420268996e-01 
3.527922101316e+01 3.974279437491e-01 
3.547053308772e+01 3.956672894735e-01 
3.565993204265e+01 3.939576826246e-01 
3.584743700848e+01 3.922968874305e-01 
3.603306692405e+01 3.906828024949e-01 
3.621684054035e+01 3.891134505501e-01 
3.639877642056e+01 3.875869691803e-01 
3.657889293994e+01 3.861016023813e-01 
3.675720829391e+01 3.846556928032e-01 
3.693374049671e+01 3.832476747439e-01 
3.710850737877e+01 3.818760677548e-01 
3.728152658979e+01 3.805394707416e-01 
3.745281560988e+01 3.792365564970e-01 
3.762239174177e+01 3.779660668222e-01 
3.779027211067e+01 3.767268079851e-01 
3.795647367521e+01 3.755176464614e-01 
3.812101322331e+01 3.743375051166e-01 
3.828390737565e+01 3.731853596297e-01 
3.844517258894e+01 3.720602351913e-01 
3.860482515178e+01 3.709612035009e-01 
3.876288118803e+01 3.698873799355e-01 
3.891935666376e+01 3.688379209018e-01 
3.907426738294e+01 3.678120214545e-01 
3.922762899449e+01 3.668089130092e-01 
3.937945699157e+01 3.658278612674e-01 
3.952976670727e+01 3.648681643070e-01 
3.967857332527e+01 3.639291507112e-01 
3.982589187903e+01 3.630101778942e-01 
3.997173724741e+01 3.621106305611e-01 
4.011612416147e+01 3.612299192023e-01 
4.025906720735e+01 3.603674787087e-01 
4.040058082176e+01 3.595227671208e-01 
4.054067929873e+01 3.586952643914e-01 
4.067937679236e+01 3.578844712489e-01 
4.081668731222e+01 3.570899081742e-01 
4.095262472626e+01 3.563111143980e-01 
4.108720276731e+01 3.555476469381e-01 
4.122043502832e+01 3.547990797585e-01 
4.135233496520e+01 3.540650029356e-01 
4.148291590322e+01 3.533450218548e-01 
4.161219103221e+01 3.526387565143e-01 
4.174017340925e+01 3.519458408284e-01 
4.186687596131e+01 3.512659219720e-01 
4.199231148785e+01 3.505986597605e-01 
4.211649265963e+01 3.499437260860e-01 
4.223943201759e+01 3.493008043830e-01 
4.236114198285e+01 3.486695890666e-01 
4.248163485166e+01 3.480497850782e-01 
4.260092279047e+01 3.474411074544e-01 
4.271901784967e+01 3.468432808252e-01 
4.283593195840e+01 3.462560390333e-01 
4.295167692334e+01 3.456791247532e-01 
4.306626443854e+01 3.451122890755e-01 
4.317970608023e+01 3.445552911862e-01 
4.329201330550e+01 3.440078980431e-01 
4.340319745833e+01 3.434698840333e-01 
4.351326977187e+01 3.429410306651e-01 
4.362224136320e+01 3.424211263120e-01 
4.373012323567e+01 3.419099659317e-01 
4.383692628857e+01 3.414073507660e-01 
4.394266131175e+01 3.409130881239e-01 
4.404733898418e+01 3.404269911574e-01 
4.415096987977e+01 3.399488786140e-01 
4.425356446581e+01 3.394785746351e-01 
4.435513310507e+01 3.390159085469e-01 
4.445568605787e+01 3.385607146601e-01 
4.455523348420e+01 3.381128320803e-01 
4.465378543817e+01 3.376721045590e-01 
4.475135187021e+01 3.372383803184e-01 
4.484794263652e+01 3.368115118524e-01 
4.494356749723e+01 3.363913557836e-01 
4.503823611090e+01 3.359777727448e-01 
4.513195803658e+01 3.355706272314e-01 
4.522474274315e+01 3.351697874298e-01 
4.531659960371e+01 3.347751251162e-01 
4.540753789381e+01 3.343865155440e-01 
4.549756680079e+01 3.340038372883e-01 
4.558669541809e+01 3.336269721609e-01 
4.567493274718e+01 3.332558050958e-01 
4.576228770304e+01 3.328902240256e-01 
4.584876911224e+01 3.325301197932e-01 
4.593438570720e+01 3.321753860825e-01 
4.601914613560e+01 3.318259192901e-01 
4.610305896190e+01 3.314816184345e-01 
4.618613265801e+01 3.311423851121e-01 
4.626837561620e+01 3.308081233660e-01 
4.634979614698e+01 3.304787396195e-01 
4.643040247333e+01 3.301541426273e-01 
4.651020273612e+01 3.298342433838e-01 
4.658920499579e+01 3.295189550498e-01 
4.666741723389e+01 3.292081928823e-01 
4.674484735100e+01 3.289018741811e-01 
4.682150316457e+01 3.285999182384e-01 
4.689739241807e+01 3.283022462450e-01 
4.697252277866e+01 3.280087812458e-01 
4.704690183510e+01 3.277194480945e-01 
4.712053710297e+01 3.274341733830e-01 
4.719343601870e+01 3.271528854157e-01 
4.726560594489e+01 3.268755141418e-01 
4.733705417173e+01 3.266019911049e-01 
4.740778791477e+01 3.263322494076e-01 
4.747781432010e+01 3.260662236499e-01 
4.754714046201e+01 3.258038498982e-01 
4.761577334449e+01 3.255450656400e-01 
4.768371989882e+01 3.252898097559e-01 
4.775098698509e+01 3.250380224774e-01 
4.781758140100e+01 3.247896453190e-01 
4.788350987569e+01 3.245446210678e-01 
4.794877906368e+01 3.243028937736e-01 
4.801339555752e+01 3.240644086703e-01 
4.807736588897e+01 3.238291121415e-01 
4.814069651914e+01 3.235969517280e-01 
4.820339383970e+01 3.233678760946e-01 
4.826546418609e+01 3.231418349548e-01 
4.832691382989e+01 3.229187790723e-01 
4.838774897775e+01 3.226986602396e-01 
4.844797577565e+01 3.224814312383e-01 
4.850760030272e+01 3.222670458372e-01 
4.856662858440e+01 3.220554587221e-01 
4.862506658469e+01 3.218466255020e-01 
4.868292020509e+01 3.216405026909e-01 
4.874019528879e+01 3.214370476727e-01 
4.879689762203e+01 3.212362186757e-01 
4.885303293148e+01 3.210379747633e-01 
4.890860688544e+01 3.208422758102e-01 
4.896362510248e+01 3.206490824548e-01 
4.901809313747e+01 3.204583561300e-01 
4.907201649040e+01 3.202700590157e-01 
4.912540061108e+01 3.200841540057e-01 
4.917825088901e+01 3.199006047274e-01 
4.923057266597e+01 3.197193754826e-01 
4.928237122526e+01 3.195404312697e-01 
4.933365179723e+01 3.193637377504e-01 
4.938441956358e+01 3.191892612205e-01 
4.943467965118e+01 3.190169686182e-01 
4.948443714043e+01 3.188468274817e-01 
4.953369705510e+01 3.186788059720e-01 
4.958246437093e+01 3.185128728303e-01 
4.963074401274e+01 3.183489973766e-01 
4.967854085565e+01 3.181871494937e-01 
4.972585973323e+01 3.180272995881e-01 
4.977270542373e+01 3.178694186265e-01 
4.981908265477e+01 3.177134781087e-01 
4.986499611176e+01 3.175594500288e-01 
4.991045043505e+01 3.174073068758e-01 
4.995545021718e+01 3.172570216324e-01 
5.000000000000e+01 3.171085675935e-01 
