VARIABLES = "X","Y","Z",VELOCITY1_X,VELOCITY1_Y,VELOCITY1_Z
ZONE T="0.000000000000e+00s", 
7.490000000000e+02 0.000000000000e+00 5.000000000000e-01 0.000000000000e+00 0.000000000000e+00 0.000000000000e+00
7.500000000000e+02 0.000000000000e+00 5.000000000000e-01 0.000000000000e+00 0.000000000000e+00 0.000000000000e+00
7.490000000000e+02 0.000000000000e+00 1.500000000000e+00 0.000000000000e+00 0.000000000000e+00 0.000000000000e+00
7.500000000000e+02 0.000000000000e+00 1.500000000000e+00 0.000000000000e+00 0.000000000000e+00 0.000000000000e+00
7.490000000000e+02 0.000000000000e+00 2.500000000000e+00 0.000000000000e+00 0.000000000000e+00 0.000000000000e+00
7.500000000000e+02 0.000000000000e+00 2.500000000000e+00 0.000000000000e+00 0.000000000000e+00 0.000000000000e+00
7.490000000000e+02 0.000000000000e+00 3.500000000000e+00 0.000000000000e+00 0.000000000000e+00 0.000000000000e+00
7.500000000000e+02 0.000000000000e+00 3.500000000000e+00 0.000000000000e+00 0.000000000000e+00 0.000000000000e+00
7.490000000000e+02 0.000000000000e+00 4.500000000000e+00 0.000000000000e+00 0.000000000000e+00 0.000000000000e+00
7.500000000000e+02 0.000000000000e+00 4.500000000000e+00 0.000000000000e+00 0.000000000000e+00 0.000000000000e+00
7.490000000000e+02 0.000000000000e+00 5.500000000000e+00 0.000000000000e+00 0.000000000000e+00 0.000000000000e+00
7.500000000000e+02 0.000000000000e+00 5.500000000000e+00 0.000000000000e+00 0.000000000000e+00 0.000000000000e+00
7.490000000000e+02 0.000000000000e+00 6.500000000000e+00 0.000000000000e+00 0.000000000000e+00 0.000000000000e+00
7.500000000000e+02 0.000000000000e+00 6.500000000000e+00 0.000000000000e+00 0.000000000000e+00 0.000000000000e+00
7.490000000000e+02 0.000000000000e+00 7.500000000000e+00 0.000000000000e+00 0.000000000000e+00 0.000000000000e+00
7.500000000000e+02 0.000000000000e+00 7.500000000000e+00 0.000000000000e+00 0.000000000000e+00 0.000000000000e+00
7.490000000000e+02 0.000000000000e+00 8.500000000000e+00 0.000000000000e+00 0.000000000000e+00 0.000000000000e+00
7.500000000000e+02 0.000000000000e+00 8.500000000000e+00 0.000000000000e+00 0.000000000000e+00 0.000000000000e+00
7.490000000000e+02 0.000000000000e+00 9.500000000000e+00 0.000000000000e+00 0.000000000000e+00 0.000000000000e+00
7.500000000000e+02 0.000000000000e+00 9.500000000000e+00 0.000000000000e+00 0.000000000000e+00 0.000000000000e+00
7.490000000000e+02 0.000000000000e+00 1.050000000000e+01 0.000000000000e+00 0.000000000000e+00 0.000000000000e+00
7.500000000000e+02 0.000000000000e+00 1.050000000000e+01 0.000000000000e+00 0.000000000000e+00 0.000000000000e+00
7.490000000000e+02 0.000000000000e+00 1.150000000000e+01 0.000000000000e+00 0.000000000000e+00 0.000000000000e+00
7.500000000000e+02 0.000000000000e+00 1.150000000000e+01 0.000000000000e+00 0.000000000000e+00 0.000000000000e+00
7.490000000000e+02 0.000000000000e+00 1.250000000000e+01 0.000000000000e+00 0.000000000000e+00 0.000000000000e+00
7.500000000000e+02 0.000000000000e+00 1.250000000000e+01 0.000000000000e+00 0.000000000000e+00 0.000000000000e+00
7.490000000000e+02 0.000000000000e+00 1.350000000000e+01 0.000000000000e+00 0.000000000000e+00 0.000000000000e+00
7.500000000000e+02 0.000000000000e+00 1.350000000000e+01 0.000000000000e+00 0.000000000000e+00 0.000000000000e+00
7.490000000000e+02 0.000000000000e+00 1.450000000000e+01 0.000000000000e+00 0.000000000000e+00 0.000000000000e+00
7.500000000000e+02 0.000000000000e+00 1.450000000000e+01 0.000000000000e+00 0.000000000000e+00 0.000000000000e+00
7.490000000000e+02 0.000000000000e+00 1.550000000000e+01 0.000000000000e+00 0.000000000000e+00 0.000000000000e+00
7.500000000000e+02 0.000000000000e+00 1.550000000000e+01 0.000000000000e+00 0.000000000000e+00 0.000000000000e+00
7.490000000000e+02 0.000000000000e+00 1.650000000000e+01 0.000000000000e+00 0.000000000000e+00 0.000000000000e+00
7.500000000000e+02 0.000000000000e+00 1.650000000000e+01 0.000000000000e+00 0.000000000000e+00 0.000000000000e+00
7.490000000000e+02 0.000000000000e+00 1.750000000000e+01 0.000000000000e+00 0.000000000000e+00 0.000000000000e+00
7.500000000000e+02 0.000000000000e+00 1.750000000000e+01 0.000000000000e+00 0.000000000000e+00 0.000000000000e+00
7.490000000000e+02 0.000000000000e+00 1.850000000000e+01 0.000000000000e+00 0.000000000000e+00 0.000000000000e+00
7.500000000000e+02 0.000000000000e+00 1.850000000000e+01 0.000000000000e+00 0.000000000000e+00 0.000000000000e+00
7.490000000000e+02 0.000000000000e+00 1.950000000000e+01 0.000000000000e+00 0.000000000000e+00 0.000000000000e+00
7.500000000000e+02 0.000000000000e+00 1.950000000000e+01 0.000000000000e+00 0.000000000000e+00 0.000000000000e+00
7.490000000000e+02 0.000000000000e+00 2.050000000000e+01 0.000000000000e+00 0.000000000000e+00 0.000000000000e+00
7.500000000000e+02 0.000000000000e+00 2.050000000000e+01 0.000000000000e+00 0.000000000000e+00 0.000000000000e+00
7.490000000000e+02 0.000000000000e+00 2.150000000000e+01 0.000000000000e+00 0.000000000000e+00 0.000000000000e+00
7.500000000000e+02 0.000000000000e+00 2.150000000000e+01 0.000000000000e+00 0.000000000000e+00 0.000000000000e+00
7.490000000000e+02 0.000000000000e+00 2.250000000000e+01 0.000000000000e+00 0.000000000000e+00 0.000000000000e+00
7.500000000000e+02 0.000000000000e+00 2.250000000000e+01 0.000000000000e+00 0.000000000000e+00 0.000000000000e+00
7.490000000000e+02 0.000000000000e+00 2.350000000000e+01 0.000000000000e+00 0.000000000000e+00 0.000000000000e+00
7.500000000000e+02 0.000000000000e+00 2.350000000000e+01 0.000000000000e+00 0.000000000000e+00 0.000000000000e+00
7.490000000000e+02 0.000000000000e+00 2.450000000000e+01 0.000000000000e+00 0.000000000000e+00 0.000000000000e+00
7.500000000000e+02 0.000000000000e+00 2.450000000000e+01 0.000000000000e+00 0.000000000000e+00 0.000000000000e+00
7.490000000000e+02 0.000000000000e+00 2.550000000000e+01 0.000000000000e+00 0.000000000000e+00 0.000000000000e+00
7.500000000000e+02 0.000000000000e+00 2.550000000000e+01 0.000000000000e+00 0.000000000000e+00 0.000000000000e+00
7.490000000000e+02 0.000000000000e+00 2.650000000000e+01 0.000000000000e+00 0.000000000000e+00 0.000000000000e+00
7.500000000000e+02 0.000000000000e+00 2.650000000000e+01 0.000000000000e+00 0.000000000000e+00 0.000000000000e+00
7.490000000000e+02 0.000000000000e+00 2.750000000000e+01 0.000000000000e+00 0.000000000000e+00 0.000000000000e+00
7.500000000000e+02 0.000000000000e+00 2.750000000000e+01 0.000000000000e+00 0.000000000000e+00 0.000000000000e+00
7.490000000000e+02 0.000000000000e+00 2.850000000000e+01 0.000000000000e+00 0.000000000000e+00 0.000000000000e+00
7.500000000000e+02 0.000000000000e+00 2.850000000000e+01 0.000000000000e+00 0.000000000000e+00 0.000000000000e+00
7.490000000000e+02 0.000000000000e+00 2.950000000000e+01 0.000000000000e+00 0.000000000000e+00 0.000000000000e+00
7.500000000000e+02 0.000000000000e+00 2.950000000000e+01 0.000000000000e+00 0.000000000000e+00 0.000000000000e+00
VARIABLES = "X","Y","Z",VELOCITY1_X,VELOCITY1_Y,VELOCITY1_Z
ZONE T="1.797693134862e+308s", 
7.490000000000e+02 0.000000000000e+00 5.000000000000e-01 3.799159459284e-08 -2.409938118758e-11 0.000000000000e+00
7.500000000000e+02 0.000000000000e+00 5.000000000000e-01 3.803976225632e-08 -2.408117149074e-11 0.000000000000e+00
7.490000000000e+02 0.000000000000e+00 1.500000000000e+00 2.412004949899e-09 -4.972587517538e-11 0.000000000000e+00
7.500000000000e+02 0.000000000000e+00 1.500000000000e+00 2.415063074722e-09 -4.968824375236e-11 0.000000000000e+00
7.490000000000e+02 0.000000000000e+00 2.500000000000e+00 8.285003614673e-07 -5.768792855483e-10 0.000000000000e+00
7.500000000000e+02 0.000000000000e+00 2.500000000000e+00 8.295509323079e-07 -5.764438136701e-10 0.000000000000e+00
7.490000000000e+02 0.000000000000e+00 3.500000000000e+00 1.832302216022e-08 -1.114065190758e-09 0.000000000000e+00
7.500000000000e+02 0.000000000000e+00 3.500000000000e+00 1.834625768387e-08 -1.113224463660e-09 0.000000000000e+00
7.490000000000e+02 0.000000000000e+00 4.500000000000e+00 3.730340998457e-08 -1.149369961733e-09 0.000000000000e+00
7.500000000000e+02 0.000000000000e+00 4.500000000000e+00 3.735073347574e-08 -1.148502813381e-09 0.000000000000e+00
7.490000000000e+02 0.000000000000e+00 5.500000000000e+00 5.656246357544e-08 -1.208956418258e-09 0.000000000000e+00
7.500000000000e+02 0.000000000000e+00 5.500000000000e+00 5.663423406270e-08 -1.208044797880e-09 0.000000000000e+00
7.490000000000e+02 0.000000000000e+00 6.500000000000e+00 2.620277865677e-09 -1.246529471007e-09 0.000000000000e+00
7.500000000000e+02 0.000000000000e+00 6.500000000000e+00 2.623604326442e-09 -1.245590052813e-09 0.000000000000e+00
7.490000000000e+02 0.000000000000e+00 7.500000000000e+00 6.703319028555e-10 -1.248625880954e-09 0.000000000000e+00
7.500000000000e+02 0.000000000000e+00 7.500000000000e+00 6.711866049249e-10 -1.247685012915e-09 0.000000000000e+00
7.490000000000e+02 0.000000000000e+00 8.500000000000e+00 1.119712899493e-06 -1.971304475903e-09 0.000000000000e+00
7.500000000000e+02 0.000000000000e+00 8.500000000000e+00 1.121156774058e-06 -1.969994395827e-09 0.000000000000e+00
7.490000000000e+02 0.000000000000e+00 9.500000000000e+00 9.251314277221e-09 -2.699441499265e-09 0.000000000000e+00
7.500000000000e+02 0.000000000000e+00 9.500000000000e+00 9.263246262783e-09 -2.697756568674e-09 0.000000000000e+00
7.490000000000e+02 0.000000000000e+00 1.050000000000e+01 2.651826078100e-07 -2.876754063947e-09 0.000000000000e+00
7.500000000000e+02 0.000000000000e+00 1.050000000000e+01 2.655251423697e-07 -2.874982294988e-09 0.000000000000e+00
7.490000000000e+02 0.000000000000e+00 1.150000000000e+01 1.273415906494e-09 -3.048903674581e-09 0.000000000000e+00
7.500000000000e+02 0.000000000000e+00 1.150000000000e+01 1.275063348835e-09 -3.047048476845e-09 0.000000000000e+00
7.490000000000e+02 0.000000000000e+00 1.250000000000e+01 4.714697647429e-07 -3.358408198409e-09 0.000000000000e+00
7.500000000000e+02 0.000000000000e+00 1.250000000000e+01 4.720869661101e-07 -3.356462861871e-09 0.000000000000e+00
7.490000000000e+02 0.000000000000e+00 1.350000000000e+01 1.757059733318e-08 -3.678556457993e-09 0.000000000000e+00
7.500000000000e+02 0.000000000000e+00 1.350000000000e+01 1.759360252542e-08 -3.676518793091e-09 0.000000000000e+00
7.490000000000e+02 0.000000000000e+00 1.450000000000e+01 1.225968290680e-08 -3.698107168394e-09 0.000000000000e+00
7.500000000000e+02 0.000000000000e+00 1.450000000000e+01 1.227575235873e-08 -3.696064193592e-09 0.000000000000e+00
7.490000000000e+02 0.000000000000e+00 1.550000000000e+01 1.232015809053e-08 -3.714241684979e-09 0.000000000000e+00
7.500000000000e+02 0.000000000000e+00 1.550000000000e+01 1.233633137292e-08 -3.712194652914e-09 0.000000000000e+00
7.490000000000e+02 0.000000000000e+00 1.650000000000e+01 1.408819284397e-08 -3.731602078192e-09 0.000000000000e+00
7.500000000000e+02 0.000000000000e+00 1.650000000000e+01 1.410671473962e-08 -3.729551068888e-09 0.000000000000e+00
7.490000000000e+02 0.000000000000e+00 1.750000000000e+01 1.205371947643e-07 -3.820216752646e-09 0.000000000000e+00
7.500000000000e+02 0.000000000000e+00 1.750000000000e+01 1.206958554845e-07 -3.818147173049e-09 0.000000000000e+00
7.490000000000e+02 0.000000000000e+00 1.850000000000e+01 4.029511086513e-07 -4.164835355087e-09 0.000000000000e+00
7.500000000000e+02 0.000000000000e+00 1.850000000000e+01 4.034815817207e-07 -4.162694350314e-09 0.000000000000e+00
7.490000000000e+02 0.000000000000e+00 1.950000000000e+01 5.049840106367e-08 -4.463339054043e-09 0.000000000000e+00
7.500000000000e+02 0.000000000000e+00 1.950000000000e+01 5.056488654750e-08 -4.461136577984e-09 0.000000000000e+00
7.490000000000e+02 0.000000000000e+00 2.050000000000e+01 1.526321095976e-10 -4.496697214294e-09 0.000000000000e+00
7.500000000000e+02 0.000000000000e+00 2.050000000000e+01 1.528361331281e-10 -4.494488090191e-09 0.000000000000e+00
7.490000000000e+02 0.000000000000e+00 2.150000000000e+01 1.139430885020e-09 -4.497659216211e-09 0.000000000000e+00
7.500000000000e+02 0.000000000000e+00 2.150000000000e+01 1.141130672564e-09 -4.495451562031e-09 0.000000000000e+00
7.490000000000e+02 0.000000000000e+00 2.250000000000e+01 6.604916355708e-07 -4.997124335077e-09 0.000000000000e+00
7.500000000000e+02 0.000000000000e+00 2.250000000000e+01 6.614904071088e-07 -4.995780347565e-09 0.000000000000e+00
7.490000000000e+02 0.000000000000e+00 2.350000000000e+01 3.345698041526e-09 -5.498202318586e-09 0.000000000000e+00
7.500000000000e+02 0.000000000000e+00 2.350000000000e+01 3.350757999497e-09 -5.497723669739e-09 0.000000000000e+00
7.490000000000e+02 0.000000000000e+00 2.450000000000e+01 2.754566733103e-09 -5.502812550000e-09 0.000000000000e+00
7.500000000000e+02 0.000000000000e+00 2.450000000000e+01 2.758737457785e-09 -5.502341928498e-09 0.000000000000e+00
7.490000000000e+02 0.000000000000e+00 2.550000000000e+01 4.862089163585e-08 -5.541690723255e-09 0.000000000000e+00
7.500000000000e+02 0.000000000000e+00 2.550000000000e+01 4.869459702172e-08 -5.541288503929e-09 0.000000000000e+00
7.490000000000e+02 0.000000000000e+00 2.650000000000e+01 9.359149633311e-09 -5.585564737872e-09 0.000000000000e+00
7.500000000000e+02 0.000000000000e+00 2.650000000000e+01 9.373338600170e-09 -5.585239855241e-09 0.000000000000e+00
7.490000000000e+02 0.000000000000e+00 2.750000000000e+01 7.497795555056e-08 -5.649406827405e-09 0.000000000000e+00
7.500000000000e+02 0.000000000000e+00 2.750000000000e+01 7.509165358228e-08 -5.649194635912e-09 0.000000000000e+00
7.490000000000e+02 0.000000000000e+00 2.850000000000e+01 2.184201136219e-08 -5.722693473548e-09 0.000000000000e+00
7.500000000000e+02 0.000000000000e+00 2.850000000000e+01 2.187513376177e-08 -5.722610643714e-09 0.000000000000e+00
7.490000000000e+02 0.000000000000e+00 2.950000000000e+01 2.006822889434e-08 -5.754419079026e-09 0.000000000000e+00
7.500000000000e+02 0.000000000000e+00 2.950000000000e+01 2.009866226139e-08 -5.754392259251e-09 0.000000000000e+00
