 TITLE = "Profiles along polylines"
 VARIABLES = "DIST" "HEAD" "VELOCITY_X1" "VELOCITY_Y1" "VELOCITY_Z1" 
 ZONE T="TIME=0.000000000000e+00"
0.000000000000e+00 3.000000000000e+01 0.000000000000e+00 0.000000000000e+00 0.000000000000e+00 
1.000000000000e+00 3.000000000000e+01 0.000000000000e+00 0.000000000000e+00 0.000000000000e+00 
2.000000000000e+00 3.000000000000e+01 0.000000000000e+00 0.000000000000e+00 0.000000000000e+00 
3.000000000000e+00 3.000000000000e+01 0.000000000000e+00 0.000000000000e+00 0.000000000000e+00 
4.000000000000e+00 3.000000000000e+01 0.000000000000e+00 0.000000000000e+00 0.000000000000e+00 
5.000000000000e+00 3.000000000000e+01 0.000000000000e+00 0.000000000000e+00 0.000000000000e+00 
6.000000000000e+00 3.000000000000e+01 0.000000000000e+00 0.000000000000e+00 0.000000000000e+00 
7.000000000000e+00 3.000000000000e+01 0.000000000000e+00 0.000000000000e+00 0.000000000000e+00 
8.000000000000e+00 3.000000000000e+01 0.000000000000e+00 0.000000000000e+00 0.000000000000e+00 
9.000000000000e+00 3.000000000000e+01 0.000000000000e+00 0.000000000000e+00 0.000000000000e+00 
1.000000000000e+01 3.000000000000e+01 0.000000000000e+00 0.000000000000e+00 0.000000000000e+00 
1.100000000000e+01 3.000000000000e+01 0.000000000000e+00 0.000000000000e+00 0.000000000000e+00 
1.200000000000e+01 3.000000000000e+01 0.000000000000e+00 0.000000000000e+00 0.000000000000e+00 
1.300000000000e+01 3.000000000000e+01 0.000000000000e+00 0.000000000000e+00 0.000000000000e+00 
1.400000000000e+01 3.000000000000e+01 0.000000000000e+00 0.000000000000e+00 0.000000000000e+00 
1.500000000000e+01 3.000000000000e+01 0.000000000000e+00 0.000000000000e+00 0.000000000000e+00 
1.600000000000e+01 3.000000000000e+01 0.000000000000e+00 0.000000000000e+00 0.000000000000e+00 
1.700000000000e+01 3.000000000000e+01 0.000000000000e+00 0.000000000000e+00 0.000000000000e+00 
1.800000000000e+01 3.000000000000e+01 0.000000000000e+00 0.000000000000e+00 0.000000000000e+00 
1.900000000000e+01 3.000000000000e+01 0.000000000000e+00 0.000000000000e+00 0.000000000000e+00 
2.000000000000e+01 3.000000000000e+01 0.000000000000e+00 0.000000000000e+00 0.000000000000e+00 
2.100000000000e+01 3.000000000000e+01 0.000000000000e+00 0.000000000000e+00 0.000000000000e+00 
2.200000000000e+01 3.000000000000e+01 0.000000000000e+00 0.000000000000e+00 0.000000000000e+00 
2.300000000000e+01 3.000000000000e+01 0.000000000000e+00 0.000000000000e+00 0.000000000000e+00 
2.400000000000e+01 3.000000000000e+01 0.000000000000e+00 0.000000000000e+00 0.000000000000e+00 
2.500000000000e+01 3.000000000000e+01 0.000000000000e+00 0.000000000000e+00 0.000000000000e+00 
2.600000000000e+01 3.000000000000e+01 0.000000000000e+00 0.000000000000e+00 0.000000000000e+00 
2.700000000000e+01 3.000000000000e+01 0.000000000000e+00 0.000000000000e+00 0.000000000000e+00 
2.800000000000e+01 3.000000000000e+01 0.000000000000e+00 0.000000000000e+00 0.000000000000e+00 
2.900000000000e+01 3.000000000000e+01 0.000000000000e+00 0.000000000000e+00 0.000000000000e+00 
3.000000000000e+01 3.000000000000e+01 0.000000000000e+00 0.000000000000e+00 0.000000000000e+00 
 TITLE = "Profiles along polylines"
 VARIABLES = "DIST" "HEAD" "VELOCITY_X1" "VELOCITY_Y1" "VELOCITY_Z1" 
 ZONE T="TIME=1.797693134862e+308"
0.000000000000e+00 3.054265078709e+01 2.548248869889e-09 -2.548362125792e-11 0.000000000000e+00 
1.000000000000e+00 3.054265133980e+01 1.355015680635e-09 -3.903710400540e-11 0.000000000000e+00 
2.000000000000e+00 3.054266930614e+01 2.786586796813e-08 -3.312623009608e-10 0.000000000000e+00 
3.000000000000e+00 3.054266991277e+01 2.839946257561e-08 -8.939980411957e-10 0.000000000000e+00 
4.000000000000e+00 3.054272289243e+01 1.865449460276e-09 -1.196718629027e-09 0.000000000000e+00 
5.000000000000e+00 3.054274974086e+01 3.147733466482e-09 -1.246856274862e-09 0.000000000000e+00 
6.000000000000e+00 3.054276836532e+01 1.984633776597e-09 -1.298187773061e-09 0.000000000000e+00 
7.000000000000e+00 3.054318290970e+01 1.103308966054e-10 -1.319141632455e-09 0.000000000000e+00 
8.000000000000e+00 3.054480681832e+01 3.750457794250e-08 -1.695309654223e-09 0.000000000000e+00 
9.000000000000e+00 3.054480834475e+01 3.779178955869e-08 -2.448385060059e-09 0.000000000000e+00 
1.000000000000e+01 3.054506056250e+01 9.184972652216e-09 -2.918250818190e-09 0.000000000000e+00 
1.100000000000e+01 3.054506993495e+01 8.917906193658e-09 -3.099306148882e-09 0.000000000000e+00 
1.200000000000e+01 3.054713772907e+01 1.579905025252e-08 -3.346505581882e-09 0.000000000000e+00 
1.300000000000e+01 3.054714387551e+01 1.634363434380e-08 -3.667981232291e-09 0.000000000000e+00 
1.400000000000e+01 3.054732419200e+01 9.968565120426e-10 -3.841427959768e-09 0.000000000000e+00 
1.500000000000e+01 3.054758399840e+01 8.212723369484e-10 -3.859611679608e-09 0.000000000000e+00 
1.600000000000e+01 3.054784367540e+01 8.822172968442e-10 -3.876648605220e-09 0.000000000000e+00 
1.700000000000e+01 3.054807183694e+01 4.496527747704e-09 -3.930440394615e-09 0.000000000000e+00 
1.800000000000e+01 3.054809912493e+01 1.748421197411e-08 -4.150270289971e-09 0.000000000000e+00 
1.900000000000e+01 3.054810800599e+01 1.514488460880e-08 -4.476616390322e-09 0.000000000000e+00 
2.000000000000e+01 3.054818383704e+01 1.691684866973e-09 -4.645021315493e-09 0.000000000000e+00 
2.100000000000e+01 3.057349822760e+01 4.259312859946e-11 -4.662367515037e-09 0.000000000000e+00 
2.200000000000e+01 3.057693406817e+01 2.174003911582e-08 -4.880205682656e-09 0.000000000000e+00 
2.300000000000e+01 3.057694055929e+01 2.181246703275e-08 -5.315806982917e-09 0.000000000000e+00 
2.400000000000e+01 3.057833172749e+01 2.004266551104e-10 -5.536000707227e-09 0.000000000000e+00 
2.500000000000e+01 3.058002291204e+01 1.687583152669e-09 -5.554882306893e-09 0.000000000000e+00 
2.600000000000e+01 3.058011932302e+01 1.904511745332e-09 -5.590809615039e-09 0.000000000000e+00 
2.700000000000e+01 3.058062360979e+01 2.770178578512e-09 -5.637564045106e-09 0.000000000000e+00 
2.800000000000e+01 3.058068718127e+01 3.180183849519e-09 -5.697077886726e-09 0.000000000000e+00 
2.900000000000e+01 3.058090785690e+01 1.376593592666e-09 -5.742655931550e-09 0.000000000000e+00 
3.000000000000e+01 3.058114919284e+01 1.318329123899e-09 -5.756424220171e-09 0.000000000000e+00 
