VARIABLES = "X","Y","Z",VELOCITY1_X,VELOCITY1_Y,VELOCITY1_Z
ZONE T="0.000000000000e+00s", 
9.890000000000e+02 0.000000000000e+00 5.000000000000e-01 0.000000000000e+00 0.000000000000e+00 0.000000000000e+00
9.900000000000e+02 0.000000000000e+00 5.000000000000e-01 0.000000000000e+00 0.000000000000e+00 0.000000000000e+00
9.890000000000e+02 0.000000000000e+00 1.500000000000e+00 0.000000000000e+00 0.000000000000e+00 0.000000000000e+00
9.900000000000e+02 0.000000000000e+00 1.500000000000e+00 0.000000000000e+00 0.000000000000e+00 0.000000000000e+00
9.890000000000e+02 0.000000000000e+00 2.500000000000e+00 0.000000000000e+00 0.000000000000e+00 0.000000000000e+00
9.900000000000e+02 0.000000000000e+00 2.500000000000e+00 0.000000000000e+00 0.000000000000e+00 0.000000000000e+00
9.890000000000e+02 0.000000000000e+00 3.500000000000e+00 0.000000000000e+00 0.000000000000e+00 0.000000000000e+00
9.900000000000e+02 0.000000000000e+00 3.500000000000e+00 0.000000000000e+00 0.000000000000e+00 0.000000000000e+00
9.890000000000e+02 0.000000000000e+00 4.500000000000e+00 0.000000000000e+00 0.000000000000e+00 0.000000000000e+00
9.900000000000e+02 0.000000000000e+00 4.500000000000e+00 0.000000000000e+00 0.000000000000e+00 0.000000000000e+00
9.890000000000e+02 0.000000000000e+00 5.500000000000e+00 0.000000000000e+00 0.000000000000e+00 0.000000000000e+00
9.900000000000e+02 0.000000000000e+00 5.500000000000e+00 0.000000000000e+00 0.000000000000e+00 0.000000000000e+00
9.890000000000e+02 0.000000000000e+00 6.500000000000e+00 0.000000000000e+00 0.000000000000e+00 0.000000000000e+00
9.900000000000e+02 0.000000000000e+00 6.500000000000e+00 0.000000000000e+00 0.000000000000e+00 0.000000000000e+00
9.890000000000e+02 0.000000000000e+00 7.500000000000e+00 0.000000000000e+00 0.000000000000e+00 0.000000000000e+00
9.900000000000e+02 0.000000000000e+00 7.500000000000e+00 0.000000000000e+00 0.000000000000e+00 0.000000000000e+00
9.890000000000e+02 0.000000000000e+00 8.500000000000e+00 0.000000000000e+00 0.000000000000e+00 0.000000000000e+00
9.900000000000e+02 0.000000000000e+00 8.500000000000e+00 0.000000000000e+00 0.000000000000e+00 0.000000000000e+00
9.890000000000e+02 0.000000000000e+00 9.500000000000e+00 0.000000000000e+00 0.000000000000e+00 0.000000000000e+00
9.900000000000e+02 0.000000000000e+00 9.500000000000e+00 0.000000000000e+00 0.000000000000e+00 0.000000000000e+00
9.890000000000e+02 0.000000000000e+00 1.050000000000e+01 0.000000000000e+00 0.000000000000e+00 0.000000000000e+00
9.900000000000e+02 0.000000000000e+00 1.050000000000e+01 0.000000000000e+00 0.000000000000e+00 0.000000000000e+00
9.890000000000e+02 0.000000000000e+00 1.150000000000e+01 0.000000000000e+00 0.000000000000e+00 0.000000000000e+00
9.900000000000e+02 0.000000000000e+00 1.150000000000e+01 0.000000000000e+00 0.000000000000e+00 0.000000000000e+00
9.890000000000e+02 0.000000000000e+00 1.250000000000e+01 0.000000000000e+00 0.000000000000e+00 0.000000000000e+00
9.900000000000e+02 0.000000000000e+00 1.250000000000e+01 0.000000000000e+00 0.000000000000e+00 0.000000000000e+00
9.890000000000e+02 0.000000000000e+00 1.350000000000e+01 0.000000000000e+00 0.000000000000e+00 0.000000000000e+00
9.900000000000e+02 0.000000000000e+00 1.350000000000e+01 0.000000000000e+00 0.000000000000e+00 0.000000000000e+00
9.890000000000e+02 0.000000000000e+00 1.450000000000e+01 0.000000000000e+00 0.000000000000e+00 0.000000000000e+00
9.900000000000e+02 0.000000000000e+00 1.450000000000e+01 0.000000000000e+00 0.000000000000e+00 0.000000000000e+00
9.890000000000e+02 0.000000000000e+00 1.550000000000e+01 0.000000000000e+00 0.000000000000e+00 0.000000000000e+00
9.900000000000e+02 0.000000000000e+00 1.550000000000e+01 0.000000000000e+00 0.000000000000e+00 0.000000000000e+00
9.890000000000e+02 0.000000000000e+00 1.650000000000e+01 0.000000000000e+00 0.000000000000e+00 0.000000000000e+00
9.900000000000e+02 0.000000000000e+00 1.650000000000e+01 0.000000000000e+00 0.000000000000e+00 0.000000000000e+00
9.890000000000e+02 0.000000000000e+00 1.750000000000e+01 0.000000000000e+00 0.000000000000e+00 0.000000000000e+00
9.900000000000e+02 0.000000000000e+00 1.750000000000e+01 0.000000000000e+00 0.000000000000e+00 0.000000000000e+00
9.890000000000e+02 0.000000000000e+00 1.850000000000e+01 0.000000000000e+00 0.000000000000e+00 0.000000000000e+00
9.900000000000e+02 0.000000000000e+00 1.850000000000e+01 0.000000000000e+00 0.000000000000e+00 0.000000000000e+00
9.890000000000e+02 0.000000000000e+00 1.950000000000e+01 0.000000000000e+00 0.000000000000e+00 0.000000000000e+00
9.900000000000e+02 0.000000000000e+00 1.950000000000e+01 0.000000000000e+00 0.000000000000e+00 0.000000000000e+00
9.890000000000e+02 0.000000000000e+00 2.050000000000e+01 0.000000000000e+00 0.000000000000e+00 0.000000000000e+00
9.900000000000e+02 0.000000000000e+00 2.050000000000e+01 0.000000000000e+00 0.000000000000e+00 0.000000000000e+00
9.890000000000e+02 0.000000000000e+00 2.150000000000e+01 0.000000000000e+00 0.000000000000e+00 0.000000000000e+00
9.900000000000e+02 0.000000000000e+00 2.150000000000e+01 0.000000000000e+00 0.000000000000e+00 0.000000000000e+00
9.890000000000e+02 0.000000000000e+00 2.250000000000e+01 0.000000000000e+00 0.000000000000e+00 0.000000000000e+00
9.900000000000e+02 0.000000000000e+00 2.250000000000e+01 0.000000000000e+00 0.000000000000e+00 0.000000000000e+00
9.890000000000e+02 0.000000000000e+00 2.350000000000e+01 0.000000000000e+00 0.000000000000e+00 0.000000000000e+00
9.900000000000e+02 0.000000000000e+00 2.350000000000e+01 0.000000000000e+00 0.000000000000e+00 0.000000000000e+00
9.890000000000e+02 0.000000000000e+00 2.450000000000e+01 0.000000000000e+00 0.000000000000e+00 0.000000000000e+00
9.900000000000e+02 0.000000000000e+00 2.450000000000e+01 0.000000000000e+00 0.000000000000e+00 0.000000000000e+00
9.890000000000e+02 0.000000000000e+00 2.550000000000e+01 0.000000000000e+00 0.000000000000e+00 0.000000000000e+00
9.900000000000e+02 0.000000000000e+00 2.550000000000e+01 0.000000000000e+00 0.000000000000e+00 0.000000000000e+00
9.890000000000e+02 0.000000000000e+00 2.650000000000e+01 0.000000000000e+00 0.000000000000e+00 0.000000000000e+00
9.900000000000e+02 0.000000000000e+00 2.650000000000e+01 0.000000000000e+00 0.000000000000e+00 0.000000000000e+00
9.890000000000e+02 0.000000000000e+00 2.750000000000e+01 0.000000000000e+00 0.000000000000e+00 0.000000000000e+00
9.900000000000e+02 0.000000000000e+00 2.750000000000e+01 0.000000000000e+00 0.000000000000e+00 0.000000000000e+00
9.890000000000e+02 0.000000000000e+00 2.850000000000e+01 0.000000000000e+00 0.000000000000e+00 0.000000000000e+00
9.900000000000e+02 0.000000000000e+00 2.850000000000e+01 0.000000000000e+00 0.000000000000e+00 0.000000000000e+00
9.890000000000e+02 0.000000000000e+00 2.950000000000e+01 0.000000000000e+00 0.000000000000e+00 0.000000000000e+00
9.900000000000e+02 0.000000000000e+00 2.950000000000e+01 0.000000000000e+00 0.000000000000e+00 0.000000000000e+00
VARIABLES = "X","Y","Z",VELOCITY1_X,VELOCITY1_Y,VELOCITY1_Z
ZONE T="1.797693134862e+308s", 
9.890000000000e+02 0.000000000000e+00 5.000000000000e-01 4.614911318036e-08 -2.146240188085e-12 0.000000000000e+00
9.900000000000e+02 0.000000000000e+00 5.000000000000e-01 4.615305758338e-08 -1.950098186836e-12 0.000000000000e+00
9.890000000000e+02 0.000000000000e+00 1.500000000000e+00 2.929958592452e-09 -4.428756582064e-12 0.000000000000e+00
9.900000000000e+02 0.000000000000e+00 1.500000000000e+00 2.930209098309e-09 -4.024040062910e-12 0.000000000000e+00
9.890000000000e+02 0.000000000000e+00 2.500000000000e+00 1.006522311364e-06 -5.148367360853e-11 0.000000000000e+00
9.900000000000e+02 0.000000000000e+00 2.500000000000e+00 1.006608541725e-06 -4.677784399299e-11 0.000000000000e+00
9.890000000000e+02 0.000000000000e+00 3.500000000000e+00 2.226112678339e-08 -9.944210562189e-11 0.000000000000e+00
9.900000000000e+02 0.000000000000e+00 3.500000000000e+00 2.226303550026e-08 -9.035560273165e-11 0.000000000000e+00
9.890000000000e+02 0.000000000000e+00 4.500000000000e+00 4.533641084956e-08 -1.026151806874e-10 0.000000000000e+00
9.900000000000e+02 0.000000000000e+00 4.500000000000e+00 4.534032294270e-08 -9.323882508416e-11 0.000000000000e+00
9.890000000000e+02 0.000000000000e+00 5.500000000000e+00 6.875493654362e-08 -1.079884161863e-10 0.000000000000e+00
9.900000000000e+02 0.000000000000e+00 5.500000000000e+00 6.876088906661e-08 -9.812110718336e-11 0.000000000000e+00
9.890000000000e+02 0.000000000000e+00 6.500000000000e+00 3.186477199513e-09 -1.113845183131e-10 0.000000000000e+00
9.900000000000e+02 0.000000000000e+00 6.500000000000e+00 3.186755292915e-09 -1.012069925734e-10 0.000000000000e+00
9.890000000000e+02 0.000000000000e+00 7.500000000000e+00 8.182497266382e-10 -1.115838544150e-10 0.000000000000e+00
9.900000000000e+02 0.000000000000e+00 7.500000000000e+00 8.183260839455e-10 -1.013881498276e-10 0.000000000000e+00
9.890000000000e+02 0.000000000000e+00 8.500000000000e+00 1.380186934730e-06 -1.933779654636e-10 0.000000000000e+00
9.900000000000e+02 0.000000000000e+00 8.500000000000e+00 1.380337240352e-06 -1.757544263860e-10 0.000000000000e+00
9.890000000000e+02 0.000000000000e+00 9.500000000000e+00 1.140612121088e-08 -2.758137145240e-10 0.000000000000e+00
9.900000000000e+02 0.000000000000e+00 9.500000000000e+00 1.140737049609e-08 -2.507001243296e-10 0.000000000000e+00
9.890000000000e+02 0.000000000000e+00 1.050000000000e+01 3.275371758994e-07 -2.968697993416e-10 0.000000000000e+00
9.900000000000e+02 0.000000000000e+00 1.050000000000e+01 3.275746028023e-07 -2.698490533421e-10 0.000000000000e+00
9.890000000000e+02 0.000000000000e+00 1.150000000000e+01 1.575945929132e-09 -3.173515990441e-10 0.000000000000e+00
9.900000000000e+02 0.000000000000e+00 1.150000000000e+01 1.576134789112e-09 -2.884757295789e-10 0.000000000000e+00
9.890000000000e+02 0.000000000000e+00 1.250000000000e+01 5.922008626135e-07 -3.694071521691e-10 0.000000000000e+00
9.900000000000e+02 0.000000000000e+00 1.250000000000e+01 5.922965084053e-07 -3.359096883365e-10 0.000000000000e+00
9.890000000000e+02 0.000000000000e+00 1.350000000000e+01 2.207501952137e-08 -4.233240281332e-10 0.000000000000e+00
9.900000000000e+02 0.000000000000e+00 1.350000000000e+01 2.207860711762e-08 -3.850407820147e-10 0.000000000000e+00
9.890000000000e+02 0.000000000000e+00 1.450000000000e+01 1.542875380177e-08 -4.267669388558e-10 0.000000000000e+00
9.900000000000e+02 0.000000000000e+00 1.450000000000e+01 1.543138102200e-08 -3.881801675776e-10 0.000000000000e+00
9.890000000000e+02 0.000000000000e+00 1.550000000000e+01 1.554104296871e-08 -4.297892486693e-10 0.000000000000e+00
9.900000000000e+02 0.000000000000e+00 1.550000000000e+01 1.554385668721e-08 -3.909384617838e-10 0.000000000000e+00
9.890000000000e+02 0.000000000000e+00 1.650000000000e+01 1.781219455064e-08 -4.332385491760e-10 0.000000000000e+00
9.900000000000e+02 0.000000000000e+00 1.650000000000e+01 1.781561097478e-08 -3.940890497687e-10 0.000000000000e+00
9.890000000000e+02 0.000000000000e+00 1.750000000000e+01 1.526810426806e-07 -4.517464342554e-10 0.000000000000e+00
9.900000000000e+02 0.000000000000e+00 1.750000000000e+01 1.527116687016e-07 -4.110061187562e-10 0.000000000000e+00
9.890000000000e+02 0.000000000000e+00 1.850000000000e+01 5.105247211417e-07 -5.241971095548e-10 0.000000000000e+00
9.900000000000e+02 0.000000000000e+00 1.850000000000e+01 5.106277590677e-07 -4.772376296631e-10 0.000000000000e+00
9.890000000000e+02 0.000000000000e+00 1.950000000000e+01 6.399017581873e-08 -5.871442706767e-10 0.000000000000e+00
9.900000000000e+02 0.000000000000e+00 1.950000000000e+01 6.400317184661e-08 -5.347863838894e-10 0.000000000000e+00
9.890000000000e+02 0.000000000000e+00 2.050000000000e+01 1.991933486452e-10 -5.943972718092e-10 0.000000000000e+00
9.900000000000e+02 0.000000000000e+00 2.050000000000e+01 1.992825660867e-10 -5.414247301349e-10 0.000000000000e+00
9.890000000000e+02 0.000000000000e+00 2.150000000000e+01 1.819896487274e-09 -5.964849915895e-10 0.000000000000e+00
9.900000000000e+02 0.000000000000e+00 2.150000000000e+01 1.823439995180e-09 -5.433987835119e-10 0.000000000000e+00
9.890000000000e+02 0.000000000000e+00 2.250000000000e+01 1.080372476320e-06 -1.797889909773e-09 0.000000000000e+00
9.900000000000e+02 0.000000000000e+00 2.250000000000e+01 1.082654050909e-06 -1.680336384978e-09 0.000000000000e+00
9.890000000000e+02 0.000000000000e+00 2.350000000000e+01 5.493298133281e-09 -3.007386685436e-09 0.000000000000e+00
9.900000000000e+02 0.000000000000e+00 2.350000000000e+01 5.506821295201e-09 -2.825498465421e-09 0.000000000000e+00
9.890000000000e+02 0.000000000000e+00 2.450000000000e+01 4.673709550427e-09 -3.032931977242e-09 0.000000000000e+00
9.900000000000e+02 0.000000000000e+00 2.450000000000e+01 4.699262440916e-09 -2.851747373924e-09 0.000000000000e+00
9.890000000000e+02 0.000000000000e+00 2.550000000000e+01 8.530809166377e-08 -3.395739426979e-09 0.000000000000e+00
9.900000000000e+02 0.000000000000e+00 2.550000000000e+01 8.602962048817e-08 -3.234144670628e-09 0.000000000000e+00
9.890000000000e+02 0.000000000000e+00 2.650000000000e+01 1.646360190153e-08 -3.814222347343e-09 0.000000000000e+00
9.900000000000e+02 0.000000000000e+00 2.650000000000e+01 1.660732688139e-08 -3.676008670836e-09 0.000000000000e+00
9.890000000000e+02 0.000000000000e+00 2.750000000000e+01 1.328680827311e-07 -4.486727698790e-09 0.000000000000e+00
9.900000000000e+02 0.000000000000e+00 2.750000000000e+01 1.341408066319e-07 -4.395104241427e-09 0.000000000000e+00
9.890000000000e+02 0.000000000000e+00 2.850000000000e+01 3.873343546765e-08 -5.264982178840e-09 0.000000000000e+00
9.900000000000e+02 0.000000000000e+00 2.850000000000e+01 3.910779494422e-08 -5.228192767964e-09 0.000000000000e+00
9.890000000000e+02 0.000000000000e+00 2.950000000000e+01 3.561863621182e-08 -5.605757667840e-09 0.000000000000e+00
9.900000000000e+02 0.000000000000e+00 2.950000000000e+01 3.596697509255e-08 -5.593718747849e-09 0.000000000000e+00
