 TITLE = "Profiles along polylines"
 VARIABLES = "DIST" "HEAD" "VELOCITY_X1" "VELOCITY_Y1" "VELOCITY_Z1" 
 ZONE T="TIME=0.000000000000e+00"
0.000000000000e+00 3.000000000000e+01 0.000000000000e+00 0.000000000000e+00 0.000000000000e+00 
1.000000000000e+00 3.000000000000e+01 0.000000000000e+00 0.000000000000e+00 0.000000000000e+00 
2.000000000000e+00 3.000000000000e+01 0.000000000000e+00 0.000000000000e+00 0.000000000000e+00 
3.000000000000e+00 3.000000000000e+01 0.000000000000e+00 0.000000000000e+00 0.000000000000e+00 
4.000000000000e+00 3.000000000000e+01 0.000000000000e+00 0.000000000000e+00 0.000000000000e+00 
5.000000000000e+00 3.000000000000e+01 0.000000000000e+00 0.000000000000e+00 0.000000000000e+00 
6.000000000000e+00 3.000000000000e+01 0.000000000000e+00 0.000000000000e+00 0.000000000000e+00 
7.000000000000e+00 3.000000000000e+01 0.000000000000e+00 0.000000000000e+00 0.000000000000e+00 
8.000000000000e+00 3.000000000000e+01 0.000000000000e+00 0.000000000000e+00 0.000000000000e+00 
9.000000000000e+00 3.000000000000e+01 0.000000000000e+00 0.000000000000e+00 0.000000000000e+00 
1.000000000000e+01 3.000000000000e+01 0.000000000000e+00 0.000000000000e+00 0.000000000000e+00 
1.100000000000e+01 3.000000000000e+01 0.000000000000e+00 0.000000000000e+00 0.000000000000e+00 
1.200000000000e+01 3.000000000000e+01 0.000000000000e+00 0.000000000000e+00 0.000000000000e+00 
1.300000000000e+01 3.000000000000e+01 0.000000000000e+00 0.000000000000e+00 0.000000000000e+00 
1.400000000000e+01 3.000000000000e+01 0.000000000000e+00 0.000000000000e+00 0.000000000000e+00 
1.500000000000e+01 3.000000000000e+01 0.000000000000e+00 0.000000000000e+00 0.000000000000e+00 
1.600000000000e+01 3.000000000000e+01 0.000000000000e+00 0.000000000000e+00 0.000000000000e+00 
1.700000000000e+01 3.000000000000e+01 0.000000000000e+00 0.000000000000e+00 0.000000000000e+00 
1.800000000000e+01 3.000000000000e+01 0.000000000000e+00 0.000000000000e+00 0.000000000000e+00 
1.900000000000e+01 3.000000000000e+01 0.000000000000e+00 0.000000000000e+00 0.000000000000e+00 
2.000000000000e+01 3.000000000000e+01 0.000000000000e+00 0.000000000000e+00 0.000000000000e+00 
2.100000000000e+01 3.000000000000e+01 0.000000000000e+00 0.000000000000e+00 0.000000000000e+00 
2.200000000000e+01 3.000000000000e+01 0.000000000000e+00 0.000000000000e+00 0.000000000000e+00 
2.300000000000e+01 3.000000000000e+01 0.000000000000e+00 0.000000000000e+00 0.000000000000e+00 
2.400000000000e+01 3.000000000000e+01 0.000000000000e+00 0.000000000000e+00 0.000000000000e+00 
2.500000000000e+01 3.000000000000e+01 0.000000000000e+00 0.000000000000e+00 0.000000000000e+00 
2.600000000000e+01 3.000000000000e+01 0.000000000000e+00 0.000000000000e+00 0.000000000000e+00 
2.700000000000e+01 3.000000000000e+01 0.000000000000e+00 0.000000000000e+00 0.000000000000e+00 
2.800000000000e+01 3.000000000000e+01 0.000000000000e+00 0.000000000000e+00 0.000000000000e+00 
2.900000000000e+01 3.000000000000e+01 0.000000000000e+00 0.000000000000e+00 0.000000000000e+00 
3.000000000000e+01 3.000000000000e+01 0.000000000000e+00 0.000000000000e+00 0.000000000000e+00 
 TITLE = "Profiles along polylines"
 VARIABLES = "DIST" "HEAD" "VELOCITY_X1" "VELOCITY_Y1" "VELOCITY_Z1" 
 ZONE T="TIME=1.797693134862e+308"
0.000000000000e+00 3.023346401560e+01 3.801567636084e-08 -2.408325013628e-11 0.000000000000e+00 
1.000000000000e+00 3.023346453794e+01 2.021461221115e-08 -3.688789187189e-11 0.000000000000e+00 
2.000000000000e+00 3.023348151423e+01 4.157195825540e-07 -3.130930248359e-10 0.000000000000e+00 
3.000000000000e+00 3.023348208760e+01 4.236802900567e-07 -8.449069063474e-10 0.000000000000e+00 
4.000000000000e+00 3.023353215571e+01 2.783118157171e-08 -1.130960981139e-09 0.000000000000e+00 
5.000000000000e+00 3.023355752906e+01 4.696304527960e-08 -1.178375186280e-09 0.000000000000e+00 
6.000000000000e+00 3.023357513092e+01 2.961049821065e-08 -1.226922924786e-09 0.000000000000e+00 
7.000000000000e+00 3.023396692287e+01 1.646715744677e-09 -1.246744700929e-09 0.000000000000e+00 
8.000000000000e+00 3.023550171413e+01 5.605531433084e-07 -1.608968030967e-09 0.000000000000e+00 
9.000000000000e+00 3.023550316667e+01 5.648465473188e-07 -2.334046242098e-09 0.000000000000e+00 
1.000000000000e+01 3.023574392223e+01 1.373062286697e-07 -2.786566491125e-09 0.000000000000e+00 
1.100000000000e+01 3.023575287458e+01 1.333147423119e-07 -2.961222153456e-09 0.000000000000e+00 
1.200000000000e+01 3.023772906822e+01 2.365270196104e-07 -3.201972341228e-09 0.000000000000e+00 
1.300000000000e+01 3.023773495540e+01 2.446809847248e-07 -3.516717908781e-09 0.000000000000e+00 
1.400000000000e+01 3.023790799106e+01 1.492570171937e-08 -3.686524148861e-09 0.000000000000e+00 
1.500000000000e+01 3.023815733472e+01 1.229877626202e-08 -3.704362614240e-09 0.000000000000e+00 
1.600000000000e+01 3.023840657870e+01 1.321364592641e-08 -3.721106510751e-09 0.000000000000e+00 
1.700000000000e+01 3.023862559804e+01 6.735778684534e-08 -3.774084058855e-09 0.000000000000e+00 
1.800000000000e+01 3.023865180817e+01 2.619172367832e-07 -3.990660836490e-09 0.000000000000e+00 
1.900000000000e+01 3.023866035619e+01 2.268748245040e-07 -4.312163121668e-09 0.000000000000e+00 
2.000000000000e+01 3.023873345565e+01 2.534304601351e-08 -4.478063877749e-09 0.000000000000e+00 
2.100000000000e+01 3.026313994011e+01 6.473675508727e-10 -4.495221665936e-09 0.000000000000e+00 
2.200000000000e+01 3.026645265810e+01 3.310665594139e-07 -4.745818491424e-09 0.000000000000e+00 
2.300000000000e+01 3.026645901974e+01 3.321701969991e-07 -5.246855960040e-09 0.000000000000e+00 
2.400000000000e+01 3.026784108329e+01 3.052626853807e-09 -5.500086926067e-09 0.000000000000e+00 
2.500000000000e+01 3.026952139341e+01 2.570738530101e-08 -5.521864984341e-09 0.000000000000e+00 
2.600000000000e+01 3.026961727793e+01 2.901215518738e-08 -5.563305636684e-09 0.000000000000e+00 
2.700000000000e+01 3.027011935486e+01 4.220065719936e-08 -5.617247865637e-09 0.000000000000e+00 
2.800000000000e+01 3.027018274625e+01 4.844677849128e-08 -5.685919458950e-09 0.000000000000e+00 
2.900000000000e+01 3.027040318046e+01 2.097104448648e-08 -5.738507702952e-09 0.000000000000e+00 
3.000000000000e+01 3.027064443133e+01 2.008346949769e-08 -5.754395317576e-09 0.000000000000e+00 
