VARIABLES = "X","Y","Z",VELOCITY1_X,VELOCITY1_Y,VELOCITY1_Z
ZONE T="0.000000000000e+00s", 
8.990000000000e+02 0.000000000000e+00 5.000000000000e-01 0.000000000000e+00 0.000000000000e+00 0.000000000000e+00
9.000000000000e+02 0.000000000000e+00 5.000000000000e-01 0.000000000000e+00 0.000000000000e+00 0.000000000000e+00
8.990000000000e+02 0.000000000000e+00 1.500000000000e+00 0.000000000000e+00 0.000000000000e+00 0.000000000000e+00
9.000000000000e+02 0.000000000000e+00 1.500000000000e+00 0.000000000000e+00 0.000000000000e+00 0.000000000000e+00
8.990000000000e+02 0.000000000000e+00 2.500000000000e+00 0.000000000000e+00 0.000000000000e+00 0.000000000000e+00
9.000000000000e+02 0.000000000000e+00 2.500000000000e+00 0.000000000000e+00 0.000000000000e+00 0.000000000000e+00
8.990000000000e+02 0.000000000000e+00 3.500000000000e+00 0.000000000000e+00 0.000000000000e+00 0.000000000000e+00
9.000000000000e+02 0.000000000000e+00 3.500000000000e+00 0.000000000000e+00 0.000000000000e+00 0.000000000000e+00
8.990000000000e+02 0.000000000000e+00 4.500000000000e+00 0.000000000000e+00 0.000000000000e+00 0.000000000000e+00
9.000000000000e+02 0.000000000000e+00 4.500000000000e+00 0.000000000000e+00 0.000000000000e+00 0.000000000000e+00
8.990000000000e+02 0.000000000000e+00 5.500000000000e+00 0.000000000000e+00 0.000000000000e+00 0.000000000000e+00
9.000000000000e+02 0.000000000000e+00 5.500000000000e+00 0.000000000000e+00 0.000000000000e+00 0.000000000000e+00
8.990000000000e+02 0.000000000000e+00 6.500000000000e+00 0.000000000000e+00 0.000000000000e+00 0.000000000000e+00
9.000000000000e+02 0.000000000000e+00 6.500000000000e+00 0.000000000000e+00 0.000000000000e+00 0.000000000000e+00
8.990000000000e+02 0.000000000000e+00 7.500000000000e+00 0.000000000000e+00 0.000000000000e+00 0.000000000000e+00
9.000000000000e+02 0.000000000000e+00 7.500000000000e+00 0.000000000000e+00 0.000000000000e+00 0.000000000000e+00
8.990000000000e+02 0.000000000000e+00 8.500000000000e+00 0.000000000000e+00 0.000000000000e+00 0.000000000000e+00
9.000000000000e+02 0.000000000000e+00 8.500000000000e+00 0.000000000000e+00 0.000000000000e+00 0.000000000000e+00
8.990000000000e+02 0.000000000000e+00 9.500000000000e+00 0.000000000000e+00 0.000000000000e+00 0.000000000000e+00
9.000000000000e+02 0.000000000000e+00 9.500000000000e+00 0.000000000000e+00 0.000000000000e+00 0.000000000000e+00
8.990000000000e+02 0.000000000000e+00 1.050000000000e+01 0.000000000000e+00 0.000000000000e+00 0.000000000000e+00
9.000000000000e+02 0.000000000000e+00 1.050000000000e+01 0.000000000000e+00 0.000000000000e+00 0.000000000000e+00
8.990000000000e+02 0.000000000000e+00 1.150000000000e+01 0.000000000000e+00 0.000000000000e+00 0.000000000000e+00
9.000000000000e+02 0.000000000000e+00 1.150000000000e+01 0.000000000000e+00 0.000000000000e+00 0.000000000000e+00
8.990000000000e+02 0.000000000000e+00 1.250000000000e+01 0.000000000000e+00 0.000000000000e+00 0.000000000000e+00
9.000000000000e+02 0.000000000000e+00 1.250000000000e+01 0.000000000000e+00 0.000000000000e+00 0.000000000000e+00
8.990000000000e+02 0.000000000000e+00 1.350000000000e+01 0.000000000000e+00 0.000000000000e+00 0.000000000000e+00
9.000000000000e+02 0.000000000000e+00 1.350000000000e+01 0.000000000000e+00 0.000000000000e+00 0.000000000000e+00
8.990000000000e+02 0.000000000000e+00 1.450000000000e+01 0.000000000000e+00 0.000000000000e+00 0.000000000000e+00
9.000000000000e+02 0.000000000000e+00 1.450000000000e+01 0.000000000000e+00 0.000000000000e+00 0.000000000000e+00
8.990000000000e+02 0.000000000000e+00 1.550000000000e+01 0.000000000000e+00 0.000000000000e+00 0.000000000000e+00
9.000000000000e+02 0.000000000000e+00 1.550000000000e+01 0.000000000000e+00 0.000000000000e+00 0.000000000000e+00
8.990000000000e+02 0.000000000000e+00 1.650000000000e+01 0.000000000000e+00 0.000000000000e+00 0.000000000000e+00
9.000000000000e+02 0.000000000000e+00 1.650000000000e+01 0.000000000000e+00 0.000000000000e+00 0.000000000000e+00
8.990000000000e+02 0.000000000000e+00 1.750000000000e+01 0.000000000000e+00 0.000000000000e+00 0.000000000000e+00
9.000000000000e+02 0.000000000000e+00 1.750000000000e+01 0.000000000000e+00 0.000000000000e+00 0.000000000000e+00
8.990000000000e+02 0.000000000000e+00 1.850000000000e+01 0.000000000000e+00 0.000000000000e+00 0.000000000000e+00
9.000000000000e+02 0.000000000000e+00 1.850000000000e+01 0.000000000000e+00 0.000000000000e+00 0.000000000000e+00
8.990000000000e+02 0.000000000000e+00 1.950000000000e+01 0.000000000000e+00 0.000000000000e+00 0.000000000000e+00
9.000000000000e+02 0.000000000000e+00 1.950000000000e+01 0.000000000000e+00 0.000000000000e+00 0.000000000000e+00
8.990000000000e+02 0.000000000000e+00 2.050000000000e+01 0.000000000000e+00 0.000000000000e+00 0.000000000000e+00
9.000000000000e+02 0.000000000000e+00 2.050000000000e+01 0.000000000000e+00 0.000000000000e+00 0.000000000000e+00
8.990000000000e+02 0.000000000000e+00 2.150000000000e+01 0.000000000000e+00 0.000000000000e+00 0.000000000000e+00
9.000000000000e+02 0.000000000000e+00 2.150000000000e+01 0.000000000000e+00 0.000000000000e+00 0.000000000000e+00
8.990000000000e+02 0.000000000000e+00 2.250000000000e+01 0.000000000000e+00 0.000000000000e+00 0.000000000000e+00
9.000000000000e+02 0.000000000000e+00 2.250000000000e+01 0.000000000000e+00 0.000000000000e+00 0.000000000000e+00
8.990000000000e+02 0.000000000000e+00 2.350000000000e+01 0.000000000000e+00 0.000000000000e+00 0.000000000000e+00
9.000000000000e+02 0.000000000000e+00 2.350000000000e+01 0.000000000000e+00 0.000000000000e+00 0.000000000000e+00
8.990000000000e+02 0.000000000000e+00 2.450000000000e+01 0.000000000000e+00 0.000000000000e+00 0.000000000000e+00
9.000000000000e+02 0.000000000000e+00 2.450000000000e+01 0.000000000000e+00 0.000000000000e+00 0.000000000000e+00
8.990000000000e+02 0.000000000000e+00 2.550000000000e+01 0.000000000000e+00 0.000000000000e+00 0.000000000000e+00
9.000000000000e+02 0.000000000000e+00 2.550000000000e+01 0.000000000000e+00 0.000000000000e+00 0.000000000000e+00
8.990000000000e+02 0.000000000000e+00 2.650000000000e+01 0.000000000000e+00 0.000000000000e+00 0.000000000000e+00
9.000000000000e+02 0.000000000000e+00 2.650000000000e+01 0.000000000000e+00 0.000000000000e+00 0.000000000000e+00
8.990000000000e+02 0.000000000000e+00 2.750000000000e+01 0.000000000000e+00 0.000000000000e+00 0.000000000000e+00
9.000000000000e+02 0.000000000000e+00 2.750000000000e+01 0.000000000000e+00 0.000000000000e+00 0.000000000000e+00
8.990000000000e+02 0.000000000000e+00 2.850000000000e+01 0.000000000000e+00 0.000000000000e+00 0.000000000000e+00
9.000000000000e+02 0.000000000000e+00 2.850000000000e+01 0.000000000000e+00 0.000000000000e+00 0.000000000000e+00
8.990000000000e+02 0.000000000000e+00 2.950000000000e+01 0.000000000000e+00 0.000000000000e+00 0.000000000000e+00
9.000000000000e+02 0.000000000000e+00 2.950000000000e+01 0.000000000000e+00 0.000000000000e+00 0.000000000000e+00
VARIABLES = "X","Y","Z",VELOCITY1_X,VELOCITY1_Y,VELOCITY1_Z
ZONE T="1.797693134862e+308s", 
8.990000000000e+02 0.000000000000e+00 5.000000000000e-01 4.437434520180e-08 -1.629688849949e-11 0.000000000000e+00
9.000000000000e+02 0.000000000000e+00 5.000000000000e-01 4.440674694507e-08 -1.618846013898e-11 0.000000000000e+00
8.990000000000e+02 0.000000000000e+00 1.500000000000e+00 2.817257265345e-09 -3.362745726361e-11 0.000000000000e+00
9.000000000000e+02 0.000000000000e+00 1.500000000000e+00 2.819314691832e-09 -3.340365235073e-11 0.000000000000e+00
8.990000000000e+02 0.000000000000e+00 2.500000000000e+00 9.677556014273e-07 -3.904479524002e-10 0.000000000000e+00
9.000000000000e+02 0.000000000000e+00 2.500000000000e+00 9.684629861032e-07 -3.878548066845e-10 0.000000000000e+00
8.990000000000e+02 0.000000000000e+00 3.500000000000e+00 2.140326986985e-08 -7.540790286537e-10 0.000000000000e+00
9.000000000000e+02 0.000000000000e+00 3.500000000000e+00 2.141892042067e-08 -7.490697640255e-10 0.000000000000e+00
8.990000000000e+02 0.000000000000e+00 4.500000000000e+00 4.358214848181e-08 -7.780422265371e-10 0.000000000000e+00
9.000000000000e+02 0.000000000000e+00 4.500000000000e+00 4.361410662047e-08 -7.728746299687e-10 0.000000000000e+00
8.990000000000e+02 0.000000000000e+00 5.500000000000e+00 6.608887275289e-08 -8.185421474052e-10 0.000000000000e+00
9.000000000000e+02 0.000000000000e+00 5.500000000000e+00 6.613740530849e-08 -8.131078174552e-10 0.000000000000e+00
8.990000000000e+02 0.000000000000e+00 6.500000000000e+00 3.062278956691e-09 -8.441043339259e-10 0.000000000000e+00
9.000000000000e+02 0.000000000000e+00 6.500000000000e+00 3.064535723081e-09 -8.385021687079e-10 0.000000000000e+00
8.990000000000e+02 0.000000000000e+00 7.500000000000e+00 7.849355327599e-10 -8.455606866783e-10 0.000000000000e+00
9.000000000000e+02 0.000000000000e+00 7.500000000000e+00 7.855317474786e-10 -8.399493857302e-10 0.000000000000e+00
8.990000000000e+02 0.000000000000e+00 8.500000000000e+00 1.317814386546e-06 -1.387539995153e-09 0.000000000000e+00
9.000000000000e+02 0.000000000000e+00 8.500000000000e+00 1.318892656101e-06 -1.379075201147e-09 0.000000000000e+00
8.990000000000e+02 0.000000000000e+00 9.500000000000e+00 1.088917585990e-08 -1.933667501618e-09 0.000000000000e+00
9.000000000000e+02 0.000000000000e+00 9.500000000000e+00 1.089810040945e-08 -1.922330522969e-09 0.000000000000e+00
8.990000000000e+02 0.000000000000e+00 1.050000000000e+01 3.123694622866e-07 -2.068386683590e-09 0.000000000000e+00
9.000000000000e+02 0.000000000000e+00 1.050000000000e+01 3.126286703595e-07 -2.056370079174e-09 0.000000000000e+00
8.990000000000e+02 0.000000000000e+00 1.150000000000e+01 1.501231688285e-09 -2.199249651524e-09 0.000000000000e+00
9.000000000000e+02 0.000000000000e+00 1.150000000000e+01 1.502494067909e-09 -2.186574398300e-09 0.000000000000e+00
8.990000000000e+02 0.000000000000e+00 1.250000000000e+01 5.592540598487e-07 -2.459234200766e-09 0.000000000000e+00
9.000000000000e+02 0.000000000000e+00 1.250000000000e+01 5.597710848620e-07 -2.445675582637e-09 0.000000000000e+00
8.990000000000e+02 0.000000000000e+00 1.350000000000e+01 2.084384490618e-08 -2.728244732607e-09 0.000000000000e+00
9.000000000000e+02 0.000000000000e+00 1.350000000000e+01 2.086313934934e-08 -2.713773282546e-09 0.000000000000e+00
8.990000000000e+02 0.000000000000e+00 1.450000000000e+01 1.455236701661e-08 -2.744808540399e-09 0.000000000000e+00
9.000000000000e+02 0.000000000000e+00 1.450000000000e+01 1.456596329199e-08 -2.730283274801e-09 0.000000000000e+00
8.990000000000e+02 0.000000000000e+00 1.550000000000e+01 1.463628987188e-08 -2.758639585925e-09 0.000000000000e+00
9.000000000000e+02 0.000000000000e+00 1.550000000000e+01 1.465013770637e-08 -2.744072187667e-09 0.000000000000e+00
8.990000000000e+02 0.000000000000e+00 1.650000000000e+01 1.675037030961e-08 -2.773694818481e-09 0.000000000000e+00
9.000000000000e+02 0.000000000000e+00 1.650000000000e+01 1.676641332651e-08 -2.759084537171e-09 0.000000000000e+00
8.990000000000e+02 0.000000000000e+00 1.750000000000e+01 1.434081728521e-07 -2.851316710386e-09 0.000000000000e+00
9.000000000000e+02 0.000000000000e+00 1.750000000000e+01 1.435468621475e-07 -2.836498557961e-09 0.000000000000e+00
8.990000000000e+02 0.000000000000e+00 1.850000000000e+01 4.794459579482e-07 -3.153547169440e-09 0.000000000000e+00
9.000000000000e+02 0.000000000000e+00 1.850000000000e+01 4.799101751132e-07 -3.137925736050e-09 0.000000000000e+00
8.990000000000e+02 0.000000000000e+00 1.950000000000e+01 6.008783615342e-08 -3.415442932470e-09 0.000000000000e+00
9.000000000000e+02 0.000000000000e+00 1.950000000000e+01 6.014605989906e-08 -3.399127091511e-09 0.000000000000e+00
8.990000000000e+02 0.000000000000e+00 2.050000000000e+01 1.832016866137e-10 -3.444806505325e-09 0.000000000000e+00
9.000000000000e+02 0.000000000000e+00 2.050000000000e+01 1.834030317587e-10 -3.428414589413e-09 0.000000000000e+00
8.990000000000e+02 0.000000000000e+00 2.150000000000e+01 1.458888949056e-09 -3.446465173117e-09 0.000000000000e+00
9.000000000000e+02 0.000000000000e+00 2.150000000000e+01 1.461851913362e-09 -3.430084053545e-09 0.000000000000e+00
8.990000000000e+02 0.000000000000e+00 2.250000000000e+01 8.526211703542e-07 -4.356702070847e-09 0.000000000000e+00
9.000000000000e+02 0.000000000000e+00 2.250000000000e+01 8.544498974155e-07 -4.346711417339e-09 0.000000000000e+00
8.990000000000e+02 0.000000000000e+00 2.350000000000e+01 4.319293745058e-09 -5.270005647124e-09 0.000000000000e+00
9.000000000000e+02 0.000000000000e+00 2.350000000000e+01 4.328563255537e-09 -5.266428331289e-09 0.000000000000e+00
8.990000000000e+02 0.000000000000e+00 2.450000000000e+01 3.558629191152e-09 -5.278443251180e-09 0.000000000000e+00
9.000000000000e+02 0.000000000000e+00 2.450000000000e+01 3.566302418669e-09 -5.274925672403e-09 0.000000000000e+00
8.990000000000e+02 0.000000000000e+00 2.550000000000e+01 6.285917640580e-08 -5.349945939123e-09 0.000000000000e+00
9.000000000000e+02 0.000000000000e+00 2.550000000000e+01 6.299538101948e-08 -5.346939459138e-09 0.000000000000e+00
8.990000000000e+02 0.000000000000e+00 2.650000000000e+01 1.210056057567e-08 -5.430662320418e-09 0.000000000000e+00
9.000000000000e+02 0.000000000000e+00 2.650000000000e+01 1.212678979378e-08 -5.428233124406e-09 0.000000000000e+00
8.990000000000e+02 0.000000000000e+00 2.750000000000e+01 9.695433391652e-08 -5.548223455108e-09 0.000000000000e+00
9.000000000000e+02 0.000000000000e+00 2.750000000000e+01 9.716470239747e-08 -5.546636610006e-09 0.000000000000e+00
8.990000000000e+02 0.000000000000e+00 2.850000000000e+01 2.824440016884e-08 -5.683195148632e-09 0.000000000000e+00
9.000000000000e+02 0.000000000000e+00 2.850000000000e+01 2.830568976750e-08 -5.682575632665e-09 0.000000000000e+00
8.990000000000e+02 0.000000000000e+00 2.950000000000e+01 2.595111756553e-08 -5.741628826388e-09 0.000000000000e+00
9.000000000000e+02 0.000000000000e+00 2.950000000000e+01 2.600743715212e-08 -5.741428201394e-09 0.000000000000e+00
