 TITLE = "Profiles along polylines"
 VARIABLES = "DIST" "HEAD" "VELOCITY_X1" "VELOCITY_Y1" "VELOCITY_Z1" 
 ZONE T="TIME=0.000000000000e+00"
0.000000000000e+00 3.000000000000e+01 0.000000000000e+00 0.000000000000e+00 0.000000000000e+00 
1.000000000000e+00 3.000000000000e+01 0.000000000000e+00 0.000000000000e+00 0.000000000000e+00 
2.000000000000e+00 3.000000000000e+01 0.000000000000e+00 0.000000000000e+00 0.000000000000e+00 
3.000000000000e+00 3.000000000000e+01 0.000000000000e+00 0.000000000000e+00 0.000000000000e+00 
4.000000000000e+00 3.000000000000e+01 0.000000000000e+00 0.000000000000e+00 0.000000000000e+00 
5.000000000000e+00 3.000000000000e+01 0.000000000000e+00 0.000000000000e+00 0.000000000000e+00 
6.000000000000e+00 3.000000000000e+01 0.000000000000e+00 0.000000000000e+00 0.000000000000e+00 
7.000000000000e+00 3.000000000000e+01 0.000000000000e+00 0.000000000000e+00 0.000000000000e+00 
8.000000000000e+00 3.000000000000e+01 0.000000000000e+00 0.000000000000e+00 0.000000000000e+00 
9.000000000000e+00 3.000000000000e+01 0.000000000000e+00 0.000000000000e+00 0.000000000000e+00 
1.000000000000e+01 3.000000000000e+01 0.000000000000e+00 0.000000000000e+00 0.000000000000e+00 
1.100000000000e+01 3.000000000000e+01 0.000000000000e+00 0.000000000000e+00 0.000000000000e+00 
1.200000000000e+01 3.000000000000e+01 0.000000000000e+00 0.000000000000e+00 0.000000000000e+00 
1.300000000000e+01 3.000000000000e+01 0.000000000000e+00 0.000000000000e+00 0.000000000000e+00 
1.400000000000e+01 3.000000000000e+01 0.000000000000e+00 0.000000000000e+00 0.000000000000e+00 
1.500000000000e+01 3.000000000000e+01 0.000000000000e+00 0.000000000000e+00 0.000000000000e+00 
1.600000000000e+01 3.000000000000e+01 0.000000000000e+00 0.000000000000e+00 0.000000000000e+00 
1.700000000000e+01 3.000000000000e+01 0.000000000000e+00 0.000000000000e+00 0.000000000000e+00 
1.800000000000e+01 3.000000000000e+01 0.000000000000e+00 0.000000000000e+00 0.000000000000e+00 
1.900000000000e+01 3.000000000000e+01 0.000000000000e+00 0.000000000000e+00 0.000000000000e+00 
2.000000000000e+01 3.000000000000e+01 0.000000000000e+00 0.000000000000e+00 0.000000000000e+00 
2.100000000000e+01 3.000000000000e+01 0.000000000000e+00 0.000000000000e+00 0.000000000000e+00 
2.200000000000e+01 3.000000000000e+01 0.000000000000e+00 0.000000000000e+00 0.000000000000e+00 
2.300000000000e+01 3.000000000000e+01 0.000000000000e+00 0.000000000000e+00 0.000000000000e+00 
2.400000000000e+01 3.000000000000e+01 0.000000000000e+00 0.000000000000e+00 0.000000000000e+00 
2.500000000000e+01 3.000000000000e+01 0.000000000000e+00 0.000000000000e+00 0.000000000000e+00 
2.600000000000e+01 3.000000000000e+01 0.000000000000e+00 0.000000000000e+00 0.000000000000e+00 
2.700000000000e+01 3.000000000000e+01 0.000000000000e+00 0.000000000000e+00 0.000000000000e+00 
2.800000000000e+01 3.000000000000e+01 0.000000000000e+00 0.000000000000e+00 0.000000000000e+00 
2.900000000000e+01 3.000000000000e+01 0.000000000000e+00 0.000000000000e+00 0.000000000000e+00 
3.000000000000e+01 3.000000000000e+01 0.000000000000e+00 0.000000000000e+00 0.000000000000e+00 
 TITLE = "Profiles along polylines"
 VARIABLES = "DIST" "HEAD" "VELOCITY_X1" "VELOCITY_Y1" "VELOCITY_Z1" 
 ZONE T="TIME=1.797693134862e+308"
0.000000000000e+00 3.009880152748e+01 4.439053380669e-08 -1.620078717343e-11 0.000000000000e+00 
1.000000000000e+00 3.009880187886e+01 2.360445165325e-08 -2.481494379080e-11 0.000000000000e+00 
2.000000000000e+00 3.009881329913e+01 4.854637428495e-07 -2.107893936904e-10 0.000000000000e+00 
3.000000000000e+00 3.009881368517e+01 4.947610660432e-07 -5.688945236542e-10 0.000000000000e+00 
4.000000000000e+00 3.009884739786e+01 3.250655003385e-08 -7.615507920283e-10 0.000000000000e+00 
5.000000000000e+00 3.009886448414e+01 5.485762740233e-08 -7.935939848087e-10 0.000000000000e+00 
6.000000000000e+00 3.009887633955e+01 3.459037659928e-08 -8.264324609204e-10 0.000000000000e+00 
7.000000000000e+00 3.009914026242e+01 1.926498137170e-09 -8.398633070242e-10 0.000000000000e+00 
8.000000000000e+00 3.010017418954e+01 6.595713975627e-07 -1.110313065084e-09 0.000000000000e+00 
9.000000000000e+00 3.010017520701e+01 6.646267096620e-07 -1.651830179498e-09 0.000000000000e+00 
1.000000000000e+01 3.010034686432e+01 1.617007246768e-07 -1.990680200920e-09 0.000000000000e+00 
1.100000000000e+01 3.010035327142e+01 1.570051028539e-07 -2.122878486242e-09 0.000000000000e+00 
1.200000000000e+01 3.010177223392e+01 2.805120995603e-07 -2.317619390077e-09 0.000000000000e+00 
1.300000000000e+01 3.010177652602e+01 2.901882570166e-07 -2.581321642335e-09 0.000000000000e+00 
1.400000000000e+01 3.010190431954e+01 1.771195809763e-08 -2.723680809304e-09 0.000000000000e+00 
1.500000000000e+01 3.010208860982e+01 1.460684057484e-08 -2.738835755171e-09 0.000000000000e+00 
1.600000000000e+01 3.010227295207e+01 1.570647029938e-08 -2.753241257287e-09 0.000000000000e+00 
1.700000000000e+01 3.010243506801e+01 8.012362951758e-08 -2.799468817857e-09 0.000000000000e+00 
1.800000000000e+01 3.010245454989e+01 3.115835141887e-07 -2.988947388356e-09 0.000000000000e+00 
1.900000000000e+01 3.010246099684e+01 2.699035491061e-07 -3.270347520531e-09 0.000000000000e+00 
2.000000000000e+01 3.010251672175e+01 3.015647311400e-08 -3.415636117027e-09 0.000000000000e+00 
2.100000000000e+01 3.012114320034e+01 8.282189285506e-10 -3.431118342228e-09 0.000000000000e+00 
2.200000000000e+01 3.012367207955e+01 4.275046918557e-07 -3.889901747777e-09 0.000000000000e+00 
2.300000000000e+01 3.012367761594e+01 4.289339843093e-07 -4.807343800807e-09 0.000000000000e+00 
2.400000000000e+01 3.012500162403e+01 3.944593621487e-09 -5.271081828329e-09 0.000000000000e+00 
2.500000000000e+01 3.012661259244e+01 3.324627104266e-08 -5.311304824236e-09 0.000000000000e+00 
2.600000000000e+01 3.012670511918e+01 3.752168045483e-08 -5.387896452222e-09 0.000000000000e+00 
2.700000000000e+01 3.012719310391e+01 5.458759039498e-08 -5.487664026719e-09 0.000000000000e+00 
2.800000000000e+01 3.012725534622e+01 6.266795433883e-08 -5.614732019446e-09 0.000000000000e+00 
2.900000000000e+01 3.012747424065e+01 2.712742615537e-08 -5.712048715004e-09 0.000000000000e+00 
3.000000000000e+01 3.012771494884e+01 2.597945635209e-08 -5.741451097032e-09 0.000000000000e+00 
