VARIABLES = "Time","Value"
ZONE T=obs_00900
0.000000000000e+00 0.000000000000e+00
