VARIABLES = "Time","Value"
ZONE T=obs_00750
0.000000000000e+00 0.000000000000e+00
