 TITLE = "Profiles along polylines"
 VARIABLES = "DIST" "HEAD" "VELOCITY_X1" "VELOCITY_Y1" "VELOCITY_Z1" 
 ZONE T="TIME=0.000000000000e+00"
0.000000000000e+00 3.000000000000e+01 0.000000000000e+00 0.000000000000e+00 0.000000000000e+00 
1.000000000000e+00 3.000000000000e+01 0.000000000000e+00 0.000000000000e+00 0.000000000000e+00 
2.000000000000e+00 3.000000000000e+01 0.000000000000e+00 0.000000000000e+00 0.000000000000e+00 
3.000000000000e+00 3.000000000000e+01 0.000000000000e+00 0.000000000000e+00 0.000000000000e+00 
4.000000000000e+00 3.000000000000e+01 0.000000000000e+00 0.000000000000e+00 0.000000000000e+00 
5.000000000000e+00 3.000000000000e+01 0.000000000000e+00 0.000000000000e+00 0.000000000000e+00 
6.000000000000e+00 3.000000000000e+01 0.000000000000e+00 0.000000000000e+00 0.000000000000e+00 
7.000000000000e+00 3.000000000000e+01 0.000000000000e+00 0.000000000000e+00 0.000000000000e+00 
8.000000000000e+00 3.000000000000e+01 0.000000000000e+00 0.000000000000e+00 0.000000000000e+00 
9.000000000000e+00 3.000000000000e+01 0.000000000000e+00 0.000000000000e+00 0.000000000000e+00 
1.000000000000e+01 3.000000000000e+01 0.000000000000e+00 0.000000000000e+00 0.000000000000e+00 
1.100000000000e+01 3.000000000000e+01 0.000000000000e+00 0.000000000000e+00 0.000000000000e+00 
1.200000000000e+01 3.000000000000e+01 0.000000000000e+00 0.000000000000e+00 0.000000000000e+00 
1.300000000000e+01 3.000000000000e+01 0.000000000000e+00 0.000000000000e+00 0.000000000000e+00 
1.400000000000e+01 3.000000000000e+01 0.000000000000e+00 0.000000000000e+00 0.000000000000e+00 
1.500000000000e+01 3.000000000000e+01 0.000000000000e+00 0.000000000000e+00 0.000000000000e+00 
1.600000000000e+01 3.000000000000e+01 0.000000000000e+00 0.000000000000e+00 0.000000000000e+00 
1.700000000000e+01 3.000000000000e+01 0.000000000000e+00 0.000000000000e+00 0.000000000000e+00 
1.800000000000e+01 3.000000000000e+01 0.000000000000e+00 0.000000000000e+00 0.000000000000e+00 
1.900000000000e+01 3.000000000000e+01 0.000000000000e+00 0.000000000000e+00 0.000000000000e+00 
2.000000000000e+01 3.000000000000e+01 0.000000000000e+00 0.000000000000e+00 0.000000000000e+00 
2.100000000000e+01 3.000000000000e+01 0.000000000000e+00 0.000000000000e+00 0.000000000000e+00 
2.200000000000e+01 3.000000000000e+01 0.000000000000e+00 0.000000000000e+00 0.000000000000e+00 
2.300000000000e+01 3.000000000000e+01 0.000000000000e+00 0.000000000000e+00 0.000000000000e+00 
2.400000000000e+01 3.000000000000e+01 0.000000000000e+00 0.000000000000e+00 0.000000000000e+00 
2.500000000000e+01 3.000000000000e+01 0.000000000000e+00 0.000000000000e+00 0.000000000000e+00 
2.600000000000e+01 3.000000000000e+01 0.000000000000e+00 0.000000000000e+00 0.000000000000e+00 
2.700000000000e+01 3.000000000000e+01 0.000000000000e+00 0.000000000000e+00 0.000000000000e+00 
2.800000000000e+01 3.000000000000e+01 0.000000000000e+00 0.000000000000e+00 0.000000000000e+00 
2.900000000000e+01 3.000000000000e+01 0.000000000000e+00 0.000000000000e+00 0.000000000000e+00 
3.000000000000e+01 3.000000000000e+01 0.000000000000e+00 0.000000000000e+00 0.000000000000e+00 
 TITLE = "Profiles along polylines"
 VARIABLES = "DIST" "HEAD" "VELOCITY_X1" "VELOCITY_Y1" "VELOCITY_Z1" 
 ZONE T="TIME=1.797693134862e+308"
0.000000000000e+00 3.050925952310e+01 3.748036936926e-07 -7.496381342923e-10 0.000000000000e+00 
1.000000000000e+00 3.050926007579e+01 1.889501698050e-07 -1.127596174109e-09 0.000000000000e+00 
2.000000000000e+00 3.050939442621e+01 4.592274208198e-08 -1.597404303049e-09 0.000000000000e+00 
3.000000000000e+00 3.050939968598e+01 1.116626044875e-07 -1.912601727072e-09 0.000000000000e+00 
4.000000000000e+00 3.050940407185e+01 7.354273057219e-08 -2.283054998509e-09 0.000000000000e+00 
5.000000000000e+00 3.050945775567e+01 1.451734095310e-07 -2.720522505075e-09 0.000000000000e+00 
6.000000000000e+00 3.050946075026e+01 1.418547075138e-07 -3.294635484625e-09 0.000000000000e+00 
7.000000000000e+00 3.050962915670e+01 3.388291010060e-09 -3.585164294232e-09 0.000000000000e+00 
8.000000000000e+00 3.051072605638e+01 3.748068208774e-09 -3.599438300091e-09 0.000000000000e+00 
9.000000000000e+00 3.051087727577e+01 3.700063071975e-09 -3.614336157945e-09 0.000000000000e+00 
1.000000000000e+01 3.051211455700e+01 2.452665783126e-09 -3.626643216739e-09 0.000000000000e+00 
1.100000000000e+01 3.051235953290e+01 1.436131945116e-08 -3.660274592784e-09 0.000000000000e+00 
1.200000000000e+01 3.051240092815e+01 1.252615028127e-08 -3.714056872892e-09 0.000000000000e+00 
1.300000000000e+01 3.051482579916e+01 4.005665350176e-10 -3.739914826414e-09 0.000000000000e+00 
1.400000000000e+01 3.051758219489e+01 7.371510608296e-10 -3.742190604942e-09 0.000000000000e+00 
1.500000000000e+01 3.051852329926e+01 8.534828576569e-09 -3.760737501743e-09 0.000000000000e+00 
1.600000000000e+01 3.051858866862e+01 1.641805633209e-08 -3.810653338309e-09 0.000000000000e+00 
1.700000000000e+01 3.051865164400e+01 8.545202299139e-09 -3.860591480036e-09 0.000000000000e+00 
1.800000000000e+01 3.052342121903e+01 9.596273693836e-09 -3.896882370045e-09 0.000000000000e+00 
1.900000000000e+01 3.052347827351e+01 1.255639818651e-08 -3.941199338309e-09 0.000000000000e+00 
2.000000000000e+01 3.052365664637e+01 3.511784107906e-09 -3.973345822754e-09 0.000000000000e+00 
2.100000000000e+01 3.052490853775e+01 2.056912632062e-08 -4.021518318536e-09 0.000000000000e+00 
2.200000000000e+01 3.052493642468e+01 2.371691662236e-08 -4.110115000257e-09 0.000000000000e+00 
2.300000000000e+01 3.052509657328e+01 1.120989304921e-07 -4.381810042713e-09 0.000000000000e+00 
2.400000000000e+01 3.052510243846e+01 1.105698986715e-07 -4.827271466330e-09 0.000000000000e+00 
2.500000000000e+01 3.052544138245e+01 3.595191085026e-09 -5.055680181349e-09 0.000000000000e+00 
2.600000000000e+01 3.052589649893e+01 1.562554891896e-09 -5.065998557914e-09 0.000000000000e+00 
2.700000000000e+01 3.055342189719e+01 7.881207706880e-08 -5.226795853706e-09 0.000000000000e+00 
2.800000000000e+01 3.055343134083e+01 8.515763689537e-08 -5.554873895345e-09 0.000000000000e+00 
2.900000000000e+01 3.055355551692e+01 8.724164234110e-09 -5.742737432722e-09 0.000000000000e+00 
3.000000000000e+01 3.055389376536e+01 4.706312032780e-09 -5.760194254048e-09 0.000000000000e+00 
