 TITLE = "Profiles along polylines"
 VARIABLES = "DIST" "HEAD" "VELOCITY_X1" "VELOCITY_Y1" "VELOCITY_Z1" 
 ZONE T="TIME=0.000000000000e+00"
0.000000000000e+00 3.000000000000e+01 0.000000000000e+00 0.000000000000e+00 0.000000000000e+00 
1.000000000000e+00 3.000000000000e+01 0.000000000000e+00 0.000000000000e+00 0.000000000000e+00 
2.000000000000e+00 3.000000000000e+01 0.000000000000e+00 0.000000000000e+00 0.000000000000e+00 
3.000000000000e+00 3.000000000000e+01 0.000000000000e+00 0.000000000000e+00 0.000000000000e+00 
4.000000000000e+00 3.000000000000e+01 0.000000000000e+00 0.000000000000e+00 0.000000000000e+00 
5.000000000000e+00 3.000000000000e+01 0.000000000000e+00 0.000000000000e+00 0.000000000000e+00 
6.000000000000e+00 3.000000000000e+01 0.000000000000e+00 0.000000000000e+00 0.000000000000e+00 
7.000000000000e+00 3.000000000000e+01 0.000000000000e+00 0.000000000000e+00 0.000000000000e+00 
8.000000000000e+00 3.000000000000e+01 0.000000000000e+00 0.000000000000e+00 0.000000000000e+00 
9.000000000000e+00 3.000000000000e+01 0.000000000000e+00 0.000000000000e+00 0.000000000000e+00 
1.000000000000e+01 3.000000000000e+01 0.000000000000e+00 0.000000000000e+00 0.000000000000e+00 
1.100000000000e+01 3.000000000000e+01 0.000000000000e+00 0.000000000000e+00 0.000000000000e+00 
1.200000000000e+01 3.000000000000e+01 0.000000000000e+00 0.000000000000e+00 0.000000000000e+00 
1.300000000000e+01 3.000000000000e+01 0.000000000000e+00 0.000000000000e+00 0.000000000000e+00 
1.400000000000e+01 3.000000000000e+01 0.000000000000e+00 0.000000000000e+00 0.000000000000e+00 
1.500000000000e+01 3.000000000000e+01 0.000000000000e+00 0.000000000000e+00 0.000000000000e+00 
1.600000000000e+01 3.000000000000e+01 0.000000000000e+00 0.000000000000e+00 0.000000000000e+00 
1.700000000000e+01 3.000000000000e+01 0.000000000000e+00 0.000000000000e+00 0.000000000000e+00 
1.800000000000e+01 3.000000000000e+01 0.000000000000e+00 0.000000000000e+00 0.000000000000e+00 
1.900000000000e+01 3.000000000000e+01 0.000000000000e+00 0.000000000000e+00 0.000000000000e+00 
2.000000000000e+01 3.000000000000e+01 0.000000000000e+00 0.000000000000e+00 0.000000000000e+00 
2.100000000000e+01 3.000000000000e+01 0.000000000000e+00 0.000000000000e+00 0.000000000000e+00 
2.200000000000e+01 3.000000000000e+01 0.000000000000e+00 0.000000000000e+00 0.000000000000e+00 
2.300000000000e+01 3.000000000000e+01 0.000000000000e+00 0.000000000000e+00 0.000000000000e+00 
2.400000000000e+01 3.000000000000e+01 0.000000000000e+00 0.000000000000e+00 0.000000000000e+00 
2.500000000000e+01 3.000000000000e+01 0.000000000000e+00 0.000000000000e+00 0.000000000000e+00 
2.600000000000e+01 3.000000000000e+01 0.000000000000e+00 0.000000000000e+00 0.000000000000e+00 
2.700000000000e+01 3.000000000000e+01 0.000000000000e+00 0.000000000000e+00 0.000000000000e+00 
2.800000000000e+01 3.000000000000e+01 0.000000000000e+00 0.000000000000e+00 0.000000000000e+00 
2.900000000000e+01 3.000000000000e+01 0.000000000000e+00 0.000000000000e+00 0.000000000000e+00 
3.000000000000e+01 3.000000000000e+01 0.000000000000e+00 0.000000000000e+00 0.000000000000e+00 
 TITLE = "Profiles along polylines"
 VARIABLES = "DIST" "HEAD" "VELOCITY_X1" "VELOCITY_Y1" "VELOCITY_Z1" 
 ZONE T="TIME=1.797693134862e+308"
0.000000000000e+00 3.001000516548e+01 1.356650819396e-06 -5.876490065090e-11 0.000000000000e+00 
1.000000000000e+00 3.001000520881e+01 6.839327085161e-07 -8.839440101720e-11 0.000000000000e+00 
2.000000000000e+00 3.001001574085e+01 1.663980187078e-07 -1.253717504305e-10 0.000000000000e+00 
3.000000000000e+00 3.001001615409e+01 4.046186580210e-07 -1.506014936056e-10 0.000000000000e+00 
4.000000000000e+00 3.001001650005e+01 2.664972999955e-07 -1.802684367188e-10 0.000000000000e+00 
5.000000000000e+00 3.001002074264e+01 5.262873623441e-07 -2.155100715704e-10 0.000000000000e+00 
6.000000000000e+00 3.001002098031e+01 5.142684171995e-07 -2.618971915336e-10 0.000000000000e+00 
7.000000000000e+00 3.001003438490e+01 1.229995897539e-08 -2.853904023738e-10 0.000000000000e+00 
8.000000000000e+00 3.001012170866e+01 1.372365206318e-08 -2.866836324443e-10 0.000000000000e+00 
9.000000000000e+00 3.001013375839e+01 1.356390609318e-08 -2.881501382632e-10 0.000000000000e+00 
1.000000000000e+01 3.001023244951e+01 9.078129329127e-09 -2.894548781691e-10 0.000000000000e+00 
1.100000000000e+01 3.001025201384e+01 5.325699144573e-08 -2.934489814867e-10 0.000000000000e+00 
1.200000000000e+01 3.001025534515e+01 4.646651046996e-08 -2.998767105717e-10 0.000000000000e+00 
1.300000000000e+01 3.001045176678e+01 1.514187521883e-09 -3.030041031452e-10 0.000000000000e+00 
1.400000000000e+01 3.001067513142e+01 2.845656763914e-09 -3.034198653465e-10 0.000000000000e+00 
1.500000000000e+01 3.001075147998e+01 3.318141054724e-08 -3.073200174908e-10 0.000000000000e+00 
1.600000000000e+01 3.001075686015e+01 6.386124968562e-08 -3.179090723082e-10 0.000000000000e+00 
1.700000000000e+01 3.001076218342e+01 3.325454104870e-08 -3.285435321696e-10 0.000000000000e+00 
1.800000000000e+01 3.001117078914e+01 3.874902036127e-08 -3.383454652089e-10 0.000000000000e+00 
1.900000000000e+01 3.001117580815e+01 5.072428797159e-08 -3.525761457758e-10 0.000000000000e+00 
2.000000000000e+01 3.001119202770e+01 1.420689533624e-08 -3.629645388420e-10 0.000000000000e+00 
2.100000000000e+01 3.001130691085e+01 8.405295892024e-08 -3.806881895125e-10 0.000000000000e+00 
2.200000000000e+01 3.001130962980e+01 9.693873020466e-08 -4.139576807056e-10 0.000000000000e+00 
2.300000000000e+01 3.001132626298e+01 4.588369549230e-07 -5.188615907345e-10 0.000000000000e+00 
2.400000000000e+01 3.001132703453e+01 4.526072656409e-07 -6.919910580109e-10 0.000000000000e+00 
2.500000000000e+01 3.001137927220e+01 1.477886253370e-08 -7.814375080884e-10 0.000000000000e+00 
2.600000000000e+01 3.001144982087e+01 6.459724083220e-09 -7.866089511185e-10 0.000000000000e+00 
2.700000000000e+01 3.001573089645e+01 4.372453216281e-07 -1.909619036264e-09 0.000000000000e+00 
2.800000000000e+01 3.001573621212e+01 4.724715834981e-07 -4.242522045863e-09 0.000000000000e+00 
2.900000000000e+01 3.001585450907e+01 4.840659472166e-08 -5.578405072164e-09 0.000000000000e+00 
3.000000000000e+01 3.001618937512e+01 2.611428322629e-08 -5.702593906586e-09 0.000000000000e+00 
