 TITLE = "Profiles along polylines"
 VARIABLES = "DIST" "HEAD" "VELOCITY_X1" "VELOCITY_Y1" "VELOCITY_Z1" 
 ZONE T="TIME=0.000000000000e+00"
0.000000000000e+00 3.000000000000e+01 0.000000000000e+00 0.000000000000e+00 0.000000000000e+00 
1.000000000000e+00 3.000000000000e+01 0.000000000000e+00 0.000000000000e+00 0.000000000000e+00 
2.000000000000e+00 3.000000000000e+01 0.000000000000e+00 0.000000000000e+00 0.000000000000e+00 
3.000000000000e+00 3.000000000000e+01 0.000000000000e+00 0.000000000000e+00 0.000000000000e+00 
4.000000000000e+00 3.000000000000e+01 0.000000000000e+00 0.000000000000e+00 0.000000000000e+00 
5.000000000000e+00 3.000000000000e+01 0.000000000000e+00 0.000000000000e+00 0.000000000000e+00 
6.000000000000e+00 3.000000000000e+01 0.000000000000e+00 0.000000000000e+00 0.000000000000e+00 
7.000000000000e+00 3.000000000000e+01 0.000000000000e+00 0.000000000000e+00 0.000000000000e+00 
8.000000000000e+00 3.000000000000e+01 0.000000000000e+00 0.000000000000e+00 0.000000000000e+00 
9.000000000000e+00 3.000000000000e+01 0.000000000000e+00 0.000000000000e+00 0.000000000000e+00 
1.000000000000e+01 3.000000000000e+01 0.000000000000e+00 0.000000000000e+00 0.000000000000e+00 
1.100000000000e+01 3.000000000000e+01 0.000000000000e+00 0.000000000000e+00 0.000000000000e+00 
1.200000000000e+01 3.000000000000e+01 0.000000000000e+00 0.000000000000e+00 0.000000000000e+00 
1.300000000000e+01 3.000000000000e+01 0.000000000000e+00 0.000000000000e+00 0.000000000000e+00 
1.400000000000e+01 3.000000000000e+01 0.000000000000e+00 0.000000000000e+00 0.000000000000e+00 
1.500000000000e+01 3.000000000000e+01 0.000000000000e+00 0.000000000000e+00 0.000000000000e+00 
1.600000000000e+01 3.000000000000e+01 0.000000000000e+00 0.000000000000e+00 0.000000000000e+00 
1.700000000000e+01 3.000000000000e+01 0.000000000000e+00 0.000000000000e+00 0.000000000000e+00 
1.800000000000e+01 3.000000000000e+01 0.000000000000e+00 0.000000000000e+00 0.000000000000e+00 
1.900000000000e+01 3.000000000000e+01 0.000000000000e+00 0.000000000000e+00 0.000000000000e+00 
2.000000000000e+01 3.000000000000e+01 0.000000000000e+00 0.000000000000e+00 0.000000000000e+00 
2.100000000000e+01 3.000000000000e+01 0.000000000000e+00 0.000000000000e+00 0.000000000000e+00 
2.200000000000e+01 3.000000000000e+01 0.000000000000e+00 0.000000000000e+00 0.000000000000e+00 
2.300000000000e+01 3.000000000000e+01 0.000000000000e+00 0.000000000000e+00 0.000000000000e+00 
2.400000000000e+01 3.000000000000e+01 0.000000000000e+00 0.000000000000e+00 0.000000000000e+00 
2.500000000000e+01 3.000000000000e+01 0.000000000000e+00 0.000000000000e+00 0.000000000000e+00 
2.600000000000e+01 3.000000000000e+01 0.000000000000e+00 0.000000000000e+00 0.000000000000e+00 
2.700000000000e+01 3.000000000000e+01 0.000000000000e+00 0.000000000000e+00 0.000000000000e+00 
2.800000000000e+01 3.000000000000e+01 0.000000000000e+00 0.000000000000e+00 0.000000000000e+00 
2.900000000000e+01 3.000000000000e+01 0.000000000000e+00 0.000000000000e+00 0.000000000000e+00 
3.000000000000e+01 3.000000000000e+01 0.000000000000e+00 0.000000000000e+00 0.000000000000e+00 
 TITLE = "Profiles along polylines"
 VARIABLES = "DIST" "HEAD" "VELOCITY_X1" "VELOCITY_Y1" "VELOCITY_Z1" 
 ZONE T="TIME=1.797693134862e+308"
0.000000000000e+00 3.054380100880e+01 7.496422360602e-10 -7.495858779815e-10 0.000000000000e+00 
1.000000000000e+00 3.054380156145e+01 3.778754379938e-10 -1.127619466786e-09 0.000000000000e+00 
2.000000000000e+00 3.054393592070e+01 9.184927122175e-11 -1.597501689181e-09 0.000000000000e+00 
3.000000000000e+00 3.054394118076e+01 2.233253597902e-10 -1.912701891385e-09 0.000000000000e+00 
4.000000000000e+00 3.054394556685e+01 1.470746101916e-10 -2.283190232263e-09 0.000000000000e+00 
5.000000000000e+00 3.054399925434e+01 2.903567078611e-10 -2.720668865315e-09 0.000000000000e+00 
6.000000000000e+00 3.054400224906e+01 2.836889000180e-10 -3.294814940732e-09 0.000000000000e+00 
7.000000000000e+00 3.054417066642e+01 6.775801030847e-12 -3.585398695984e-09 0.000000000000e+00 
8.000000000000e+00 3.054526763834e+01 7.496343644270e-12 -3.599674220903e-09 0.000000000000e+00 
9.000000000000e+00 3.054541886760e+01 7.399600519211e-12 -3.614572603561e-09 0.000000000000e+00 
1.000000000000e+01 3.054665623000e+01 4.905371368842e-12 -3.626880817923e-09 0.000000000000e+00 
1.100000000000e+01 3.054690122192e+01 2.872344135987e-11 -3.660509566456e-09 0.000000000000e+00 
1.200000000000e+01 3.054694261978e+01 2.505020984055e-11 -3.714293901264e-09 0.000000000000e+00 
1.300000000000e+01 3.054936764755e+01 8.010822354518e-13 -3.740156638330e-09 0.000000000000e+00 
1.400000000000e+01 3.055212422153e+01 1.474287825047e-12 -3.742432359693e-09 0.000000000000e+00 
1.500000000000e+01 3.055306538664e+01 1.706955457423e-11 -3.760975841348e-09 0.000000000000e+00 
1.600000000000e+01 3.055313076006e+01 3.283297661621e-11 -3.810886060661e-09 0.000000000000e+00 
1.700000000000e+01 3.055319373921e+01 1.708655701166e-11 -3.860826480684e-09 0.000000000000e+00 
1.800000000000e+01 3.055796360899e+01 1.919190590567e-11 -3.897115825397e-09 0.000000000000e+00 
1.900000000000e+01 3.055802066678e+01 2.510809416797e-11 -3.941427659477e-09 0.000000000000e+00 
2.000000000000e+01 3.055819904996e+01 7.021574458250e-12 -3.973577423505e-09 0.000000000000e+00 
2.100000000000e+01 3.055945101489e+01 4.113951335931e-11 -4.021741942838e-09 0.000000000000e+00 
2.200000000000e+01 3.055947890328e+01 4.742963386596e-11 -4.110330384830e-09 0.000000000000e+00 
2.300000000000e+01 3.055963906025e+01 2.242024768746e-10 -4.381968255736e-09 0.000000000000e+00 
2.400000000000e+01 3.055964492556e+01 2.211120283942e-10 -4.827390569142e-09 0.000000000000e+00 
2.500000000000e+01 3.055998387889e+01 7.189477895454e-12 -5.055819811485e-09 0.000000000000e+00 
2.600000000000e+01 3.056043900796e+01 3.124703850800e-12 -5.066138511710e-09 0.000000000000e+00 
2.700000000000e+01 3.058796516527e+01 1.576233032987e-10 -5.226864401350e-09 0.000000000000e+00 
2.800000000000e+01 3.058797460891e+01 1.702763503946e-10 -5.554871529307e-09 0.000000000000e+00 
2.900000000000e+01 3.058809878495e+01 1.744316187236e-11 -5.742737382557e-09 0.000000000000e+00 
3.000000000000e+01 3.058843703350e+01 9.410414746636e-12 -5.760196195583e-09 0.000000000000e+00 
