 TITLE = "Profiles along polylines"
 VARIABLES = "DIST" "HEAD" "VELOCITY_X1" "VELOCITY_Y1" "VELOCITY_Z1" 
 ZONE T="TIME=0.000000000000e+00"
0.000000000000e+00 3.000000000000e+01 0.000000000000e+00 0.000000000000e+00 0.000000000000e+00 
1.000000000000e+00 3.000000000000e+01 0.000000000000e+00 0.000000000000e+00 0.000000000000e+00 
2.000000000000e+00 3.000000000000e+01 0.000000000000e+00 0.000000000000e+00 0.000000000000e+00 
3.000000000000e+00 3.000000000000e+01 0.000000000000e+00 0.000000000000e+00 0.000000000000e+00 
4.000000000000e+00 3.000000000000e+01 0.000000000000e+00 0.000000000000e+00 0.000000000000e+00 
5.000000000000e+00 3.000000000000e+01 0.000000000000e+00 0.000000000000e+00 0.000000000000e+00 
6.000000000000e+00 3.000000000000e+01 0.000000000000e+00 0.000000000000e+00 0.000000000000e+00 
7.000000000000e+00 3.000000000000e+01 0.000000000000e+00 0.000000000000e+00 0.000000000000e+00 
8.000000000000e+00 3.000000000000e+01 0.000000000000e+00 0.000000000000e+00 0.000000000000e+00 
9.000000000000e+00 3.000000000000e+01 0.000000000000e+00 0.000000000000e+00 0.000000000000e+00 
1.000000000000e+01 3.000000000000e+01 0.000000000000e+00 0.000000000000e+00 0.000000000000e+00 
1.100000000000e+01 3.000000000000e+01 0.000000000000e+00 0.000000000000e+00 0.000000000000e+00 
1.200000000000e+01 3.000000000000e+01 0.000000000000e+00 0.000000000000e+00 0.000000000000e+00 
1.300000000000e+01 3.000000000000e+01 0.000000000000e+00 0.000000000000e+00 0.000000000000e+00 
1.400000000000e+01 3.000000000000e+01 0.000000000000e+00 0.000000000000e+00 0.000000000000e+00 
1.500000000000e+01 3.000000000000e+01 0.000000000000e+00 0.000000000000e+00 0.000000000000e+00 
1.600000000000e+01 3.000000000000e+01 0.000000000000e+00 0.000000000000e+00 0.000000000000e+00 
1.700000000000e+01 3.000000000000e+01 0.000000000000e+00 0.000000000000e+00 0.000000000000e+00 
1.800000000000e+01 3.000000000000e+01 0.000000000000e+00 0.000000000000e+00 0.000000000000e+00 
1.900000000000e+01 3.000000000000e+01 0.000000000000e+00 0.000000000000e+00 0.000000000000e+00 
2.000000000000e+01 3.000000000000e+01 0.000000000000e+00 0.000000000000e+00 0.000000000000e+00 
2.100000000000e+01 3.000000000000e+01 0.000000000000e+00 0.000000000000e+00 0.000000000000e+00 
2.200000000000e+01 3.000000000000e+01 0.000000000000e+00 0.000000000000e+00 0.000000000000e+00 
2.300000000000e+01 3.000000000000e+01 0.000000000000e+00 0.000000000000e+00 0.000000000000e+00 
2.400000000000e+01 3.000000000000e+01 0.000000000000e+00 0.000000000000e+00 0.000000000000e+00 
2.500000000000e+01 3.000000000000e+01 0.000000000000e+00 0.000000000000e+00 0.000000000000e+00 
2.600000000000e+01 3.000000000000e+01 0.000000000000e+00 0.000000000000e+00 0.000000000000e+00 
2.700000000000e+01 3.000000000000e+01 0.000000000000e+00 0.000000000000e+00 0.000000000000e+00 
2.800000000000e+01 3.000000000000e+01 0.000000000000e+00 0.000000000000e+00 0.000000000000e+00 
2.900000000000e+01 3.000000000000e+01 0.000000000000e+00 0.000000000000e+00 0.000000000000e+00 
3.000000000000e+01 3.000000000000e+01 0.000000000000e+00 0.000000000000e+00 0.000000000000e+00 
 TITLE = "Profiles along polylines"
 VARIABLES = "DIST" "HEAD" "VELOCITY_X1" "VELOCITY_Y1" "VELOCITY_Z1" 
 ZONE T="TIME=1.797693134862e+308"
0.000000000000e+00 3.054241935659e+01 7.495976630893e-08 -7.496409210045e-10 0.000000000000e+00 
1.000000000000e+00 3.054241990928e+01 3.778954429792e-08 -1.127647161375e-09 0.000000000000e+00 
2.000000000000e+00 3.054255426856e+01 9.184424899756e-09 -1.597503335465e-09 0.000000000000e+00 
3.000000000000e+00 3.054255952863e+01 2.233222017329e-08 -1.912712933965e-09 0.000000000000e+00 
4.000000000000e+00 3.054256391476e+01 1.470834786325e-08 -2.283193188083e-09 0.000000000000e+00 
5.000000000000e+00 3.054261760196e+01 2.903429243864e-08 -2.720675529932e-09 0.000000000000e+00 
6.000000000000e+00 3.054262059670e+01 2.837056140455e-08 -3.294827995106e-09 0.000000000000e+00 
7.000000000000e+00 3.054278901404e+01 6.776487873634e-10 -3.585396895489e-09 0.000000000000e+00 
8.000000000000e+00 3.054388598500e+01 7.496005574279e-10 -3.599671557351e-09 0.000000000000e+00 
9.000000000000e+00 3.054403721417e+01 7.399993234233e-10 -3.614570193600e-09 0.000000000000e+00 
1.000000000000e+01 3.054527457566e+01 4.905222833502e-10 -3.626878073806e-09 0.000000000000e+00 
1.100000000000e+01 3.054551956739e+01 2.872197923415e-09 -3.660508787011e-09 0.000000000000e+00 
1.200000000000e+01 3.054556096527e+01 2.505172238858e-09 -3.714293196620e-09 0.000000000000e+00 
1.300000000000e+01 3.054798599129e+01 8.011083425654e-11 -3.740153853790e-09 0.000000000000e+00 
1.400000000000e+01 3.055074256315e+01 1.474243477014e-10 -3.742429505657e-09 0.000000000000e+00 
1.500000000000e+01 3.055168372754e+01 1.706892705274e-09 -3.760974240305e-09 0.000000000000e+00 
1.600000000000e+01 3.055174910097e+01 3.283470418031e-09 -3.810887927313e-09 0.000000000000e+00 
1.700000000000e+01 3.055181208018e+01 1.708967095444e-09 -3.860827097181e-09 0.000000000000e+00 
1.800000000000e+01 3.055658194643e+01 1.919144370617e-09 -3.897115869984e-09 0.000000000000e+00 
1.900000000000e+01 3.055663900426e+01 2.511135081883e-09 -3.941429663688e-09 0.000000000000e+00 
2.000000000000e+01 3.055681738749e+01 7.023160363463e-10 -3.973576212914e-09 0.000000000000e+00 
2.100000000000e+01 3.055806935132e+01 4.113568107739e-09 -4.021741206715e-09 0.000000000000e+00 
2.200000000000e+01 3.055809723974e+01 4.743086507657e-09 -4.110330306009e-09 0.000000000000e+00 
2.300000000000e+01 3.055825739662e+01 2.241837717931e-08 -4.381983690639e-09 0.000000000000e+00 
2.400000000000e+01 3.055826326197e+01 2.211259022208e-08 -4.827407423309e-09 0.000000000000e+00 
2.500000000000e+01 3.055860221535e+01 7.189926430780e-10 -5.055819497183e-09 0.000000000000e+00 
2.600000000000e+01 3.055905734430e+01 3.124909490413e-10 -5.066137157441e-09 0.000000000000e+00 
2.700000000000e+01 3.058658349402e+01 1.576076034214e-08 -5.226888368336e-09 0.000000000000e+00 
2.800000000000e+01 3.058659293775e+01 1.702973902270e-08 -5.554901593197e-09 0.000000000000e+00 
2.900000000000e+01 3.058671711402e+01 1.744649520499e-09 -5.742742850425e-09 0.000000000000e+00 
3.000000000000e+01 3.058705536258e+01 9.411634540704e-10 -5.760196333898e-09 0.000000000000e+00 
