VARIABLES = "X","Y","Z",VELOCITY1_X,VELOCITY1_Y,VELOCITY1_Z
ZONE T="0.000000000000e+00s", 
9.990000000000e+02 0.000000000000e+00 5.000000000000e-01 0.000000000000e+00 0.000000000000e+00 0.000000000000e+00
9.990000000000e+02 0.000000000000e+00 1.500000000000e+00 0.000000000000e+00 0.000000000000e+00 0.000000000000e+00
9.990000000000e+02 0.000000000000e+00 2.500000000000e+00 0.000000000000e+00 0.000000000000e+00 0.000000000000e+00
9.990000000000e+02 0.000000000000e+00 3.500000000000e+00 0.000000000000e+00 0.000000000000e+00 0.000000000000e+00
9.990000000000e+02 0.000000000000e+00 4.500000000000e+00 0.000000000000e+00 0.000000000000e+00 0.000000000000e+00
9.990000000000e+02 0.000000000000e+00 5.500000000000e+00 0.000000000000e+00 0.000000000000e+00 0.000000000000e+00
9.990000000000e+02 0.000000000000e+00 6.500000000000e+00 0.000000000000e+00 0.000000000000e+00 0.000000000000e+00
9.990000000000e+02 0.000000000000e+00 7.500000000000e+00 0.000000000000e+00 0.000000000000e+00 0.000000000000e+00
9.990000000000e+02 0.000000000000e+00 8.500000000000e+00 0.000000000000e+00 0.000000000000e+00 0.000000000000e+00
9.990000000000e+02 0.000000000000e+00 9.500000000000e+00 0.000000000000e+00 0.000000000000e+00 0.000000000000e+00
9.990000000000e+02 0.000000000000e+00 1.050000000000e+01 0.000000000000e+00 0.000000000000e+00 0.000000000000e+00
9.990000000000e+02 0.000000000000e+00 1.150000000000e+01 0.000000000000e+00 0.000000000000e+00 0.000000000000e+00
9.990000000000e+02 0.000000000000e+00 1.250000000000e+01 0.000000000000e+00 0.000000000000e+00 0.000000000000e+00
9.990000000000e+02 0.000000000000e+00 1.350000000000e+01 0.000000000000e+00 0.000000000000e+00 0.000000000000e+00
9.990000000000e+02 0.000000000000e+00 1.450000000000e+01 0.000000000000e+00 0.000000000000e+00 0.000000000000e+00
9.990000000000e+02 0.000000000000e+00 1.550000000000e+01 0.000000000000e+00 0.000000000000e+00 0.000000000000e+00
9.990000000000e+02 0.000000000000e+00 1.650000000000e+01 0.000000000000e+00 0.000000000000e+00 0.000000000000e+00
9.990000000000e+02 0.000000000000e+00 1.750000000000e+01 0.000000000000e+00 0.000000000000e+00 0.000000000000e+00
9.990000000000e+02 0.000000000000e+00 1.850000000000e+01 0.000000000000e+00 0.000000000000e+00 0.000000000000e+00
9.990000000000e+02 0.000000000000e+00 1.950000000000e+01 0.000000000000e+00 0.000000000000e+00 0.000000000000e+00
9.990000000000e+02 0.000000000000e+00 2.050000000000e+01 0.000000000000e+00 0.000000000000e+00 0.000000000000e+00
9.990000000000e+02 0.000000000000e+00 2.150000000000e+01 0.000000000000e+00 0.000000000000e+00 0.000000000000e+00
9.990000000000e+02 0.000000000000e+00 2.250000000000e+01 0.000000000000e+00 0.000000000000e+00 0.000000000000e+00
9.990000000000e+02 0.000000000000e+00 2.350000000000e+01 0.000000000000e+00 0.000000000000e+00 0.000000000000e+00
9.990000000000e+02 0.000000000000e+00 2.450000000000e+01 0.000000000000e+00 0.000000000000e+00 0.000000000000e+00
9.990000000000e+02 0.000000000000e+00 2.550000000000e+01 0.000000000000e+00 0.000000000000e+00 0.000000000000e+00
9.990000000000e+02 0.000000000000e+00 2.650000000000e+01 0.000000000000e+00 0.000000000000e+00 0.000000000000e+00
9.990000000000e+02 0.000000000000e+00 2.750000000000e+01 0.000000000000e+00 0.000000000000e+00 0.000000000000e+00
9.990000000000e+02 0.000000000000e+00 2.850000000000e+01 0.000000000000e+00 0.000000000000e+00 0.000000000000e+00
9.990000000000e+02 0.000000000000e+00 2.950000000000e+01 0.000000000000e+00 0.000000000000e+00 0.000000000000e+00
VARIABLES = "X","Y","Z",VELOCITY1_X,VELOCITY1_Y,VELOCITY1_Z
ZONE T="1.797693134862e+308s", 
9.990000000000e+02 0.000000000000e+00 5.000000000000e-01 4.840005433900e-08 -3.218260761667e-13 0.000000000000e+00
9.990000000000e+02 0.000000000000e+00 1.500000000000e+00 1.424716308977e-09 -6.531799509609e-13 0.000000000000e+00
9.990000000000e+02 0.000000000000e+00 2.500000000000e+00 1.619635344737e-09 -6.737451866562e-13 0.000000000000e+00
9.990000000000e+02 0.000000000000e+00 3.500000000000e+00 5.991305687620e-07 -4.787365467483e-12 0.000000000000e+00
9.990000000000e+02 0.000000000000e+00 4.500000000000e+00 3.442128002980e-09 -8.914514434759e-12 0.000000000000e+00
9.990000000000e+02 0.000000000000e+00 5.500000000000e+00 3.384685908544e-07 -1.147782490255e-11 0.000000000000e+00
9.990000000000e+02 0.000000000000e+00 6.500000000000e+00 5.132643974577e-07 -1.787088501447e-11 0.000000000000e+00
9.990000000000e+02 0.000000000000e+00 7.500000000000e+00 2.514203798352e-08 -2.191796958205e-11 0.000000000000e+00
9.990000000000e+02 0.000000000000e+00 8.500000000000e+00 9.401987465589e-08 -2.284639325583e-11 0.000000000000e+00
9.990000000000e+02 0.000000000000e+00 9.500000000000e+00 1.537397612834e-07 -2.479571547609e-11 0.000000000000e+00
9.990000000000e+02 0.000000000000e+00 1.050000000000e+01 1.183109850775e-08 -2.610722005041e-11 0.000000000000e+00
9.990000000000e+02 0.000000000000e+00 1.150000000000e+01 1.177396477857e-08 -2.631173546500e-11 0.000000000000e+00
9.990000000000e+02 0.000000000000e+00 1.250000000000e+01 2.359060184418e-08 -2.664451427386e-11 0.000000000000e+00
9.990000000000e+02 0.000000000000e+00 1.350000000000e+01 8.341039247353e-07 -3.503978602318e-11 0.000000000000e+00
9.990000000000e+02 0.000000000000e+00 1.450000000000e+01 1.067949298148e-06 -5.369408515483e-11 0.000000000000e+00
9.990000000000e+02 0.000000000000e+00 1.550000000000e+01 1.440749290290e-06 -7.837475003231e-11 0.000000000000e+00
9.990000000000e+02 0.000000000000e+00 1.650000000000e+01 4.809948761151e-08 -9.307895071946e-11 0.000000000000e+00
9.990000000000e+02 0.000000000000e+00 1.750000000000e+01 4.246841555733e-09 -9.367068598648e-11 0.000000000000e+00
9.990000000000e+02 0.000000000000e+00 1.850000000000e+01 2.319716833029e-08 -9.441826978351e-11 0.000000000000e+00
9.990000000000e+02 0.000000000000e+00 1.950000000000e+01 2.139519552074e-10 -9.512824576363e-11 0.000000000000e+00
9.990000000000e+02 0.000000000000e+00 2.050000000000e+01 9.700785626036e-08 -1.217162484997e-10 0.000000000000e+00
9.990000000000e+02 0.000000000000e+00 2.150000000000e+01 1.153808081029e-07 -1.804741057099e-10 0.000000000000e+00
9.990000000000e+02 0.000000000000e+00 2.250000000000e+01 2.869974405031e-08 -2.215281275373e-10 0.000000000000e+00
9.990000000000e+02 0.000000000000e+00 2.350000000000e+01 2.532629564437e-08 -2.396294337741e-10 0.000000000000e+00
9.990000000000e+02 0.000000000000e+00 2.450000000000e+01 1.427288703808e-09 -2.504926590232e-10 0.000000000000e+00
9.990000000000e+02 0.000000000000e+00 2.550000000000e+01 6.074171994206e-09 -2.631233867723e-10 0.000000000000e+00
9.990000000000e+02 0.000000000000e+00 2.650000000000e+01 5.625437879499e-08 -3.924500361484e-10 0.000000000000e+00
9.990000000000e+02 0.000000000000e+00 2.750000000000e+01 7.006573011999e-09 -5.420928127624e-10 0.000000000000e+00
9.990000000000e+02 0.000000000000e+00 2.850000000000e+01 1.451120393041e-07 -1.667738902386e-09 0.000000000000e+00
9.990000000000e+02 0.000000000000e+00 2.950000000000e+01 3.618497738963e-08 -4.199282842156e-09 0.000000000000e+00
