 TITLE = "Profiles along polylines"
 VARIABLES = "DIST" "HEAD" "VELOCITY_X1" "VELOCITY_Y1" "VELOCITY_Z1" 
 ZONE T="TIME=0.000000000000e+00"
0.000000000000e+00 3.000000000000e+01 0.000000000000e+00 0.000000000000e+00 0.000000000000e+00 
1.000000000000e+00 3.000000000000e+01 0.000000000000e+00 0.000000000000e+00 0.000000000000e+00 
2.000000000000e+00 3.000000000000e+01 0.000000000000e+00 0.000000000000e+00 0.000000000000e+00 
3.000000000000e+00 3.000000000000e+01 0.000000000000e+00 0.000000000000e+00 0.000000000000e+00 
4.000000000000e+00 3.000000000000e+01 0.000000000000e+00 0.000000000000e+00 0.000000000000e+00 
5.000000000000e+00 3.000000000000e+01 0.000000000000e+00 0.000000000000e+00 0.000000000000e+00 
6.000000000000e+00 3.000000000000e+01 0.000000000000e+00 0.000000000000e+00 0.000000000000e+00 
7.000000000000e+00 3.000000000000e+01 0.000000000000e+00 0.000000000000e+00 0.000000000000e+00 
8.000000000000e+00 3.000000000000e+01 0.000000000000e+00 0.000000000000e+00 0.000000000000e+00 
9.000000000000e+00 3.000000000000e+01 0.000000000000e+00 0.000000000000e+00 0.000000000000e+00 
1.000000000000e+01 3.000000000000e+01 0.000000000000e+00 0.000000000000e+00 0.000000000000e+00 
1.100000000000e+01 3.000000000000e+01 0.000000000000e+00 0.000000000000e+00 0.000000000000e+00 
1.200000000000e+01 3.000000000000e+01 0.000000000000e+00 0.000000000000e+00 0.000000000000e+00 
1.300000000000e+01 3.000000000000e+01 0.000000000000e+00 0.000000000000e+00 0.000000000000e+00 
1.400000000000e+01 3.000000000000e+01 0.000000000000e+00 0.000000000000e+00 0.000000000000e+00 
1.500000000000e+01 3.000000000000e+01 0.000000000000e+00 0.000000000000e+00 0.000000000000e+00 
1.600000000000e+01 3.000000000000e+01 0.000000000000e+00 0.000000000000e+00 0.000000000000e+00 
1.700000000000e+01 3.000000000000e+01 0.000000000000e+00 0.000000000000e+00 0.000000000000e+00 
1.800000000000e+01 3.000000000000e+01 0.000000000000e+00 0.000000000000e+00 0.000000000000e+00 
1.900000000000e+01 3.000000000000e+01 0.000000000000e+00 0.000000000000e+00 0.000000000000e+00 
2.000000000000e+01 3.000000000000e+01 0.000000000000e+00 0.000000000000e+00 0.000000000000e+00 
2.100000000000e+01 3.000000000000e+01 0.000000000000e+00 0.000000000000e+00 0.000000000000e+00 
2.200000000000e+01 3.000000000000e+01 0.000000000000e+00 0.000000000000e+00 0.000000000000e+00 
2.300000000000e+01 3.000000000000e+01 0.000000000000e+00 0.000000000000e+00 0.000000000000e+00 
2.400000000000e+01 3.000000000000e+01 0.000000000000e+00 0.000000000000e+00 0.000000000000e+00 
2.500000000000e+01 3.000000000000e+01 0.000000000000e+00 0.000000000000e+00 0.000000000000e+00 
2.600000000000e+01 3.000000000000e+01 0.000000000000e+00 0.000000000000e+00 0.000000000000e+00 
2.700000000000e+01 3.000000000000e+01 0.000000000000e+00 0.000000000000e+00 0.000000000000e+00 
2.800000000000e+01 3.000000000000e+01 0.000000000000e+00 0.000000000000e+00 0.000000000000e+00 
2.900000000000e+01 3.000000000000e+01 0.000000000000e+00 0.000000000000e+00 0.000000000000e+00 
3.000000000000e+01 3.000000000000e+01 0.000000000000e+00 0.000000000000e+00 0.000000000000e+00 
 TITLE = "Profiles along polylines"
 VARIABLES = "DIST" "HEAD" "VELOCITY_X1" "VELOCITY_Y1" "VELOCITY_Z1" 
 ZONE T="TIME=1.797693134862e+308"
0.000000000000e+00 3.054892162537e+01 2.548560245341e-09 -2.548632310354e-11 0.000000000000e+00 
1.000000000000e+00 3.054892217814e+01 1.311787711788e-09 -3.860486298354e-11 0.000000000000e+00 
2.000000000000e+00 3.054896029121e+01 8.012491658697e-11 -5.252468113682e-11 0.000000000000e+00 
3.000000000000e+00 3.054899487389e+01 1.580091394333e-08 -2.113395267851e-10 0.000000000000e+00 
4.000000000000e+00 3.054899552169e+01 1.584880064077e-08 -5.278491376470e-10 0.000000000000e+00 
5.000000000000e+00 3.054920511635e+01 8.966857394347e-09 -7.760162953696e-10 0.000000000000e+00 
6.000000000000e+00 3.054920781181e+01 2.233621785039e-08 -1.089058636427e-09 0.000000000000e+00 
7.000000000000e+00 3.054921050670e+01 1.411909434905e-08 -1.453627667607e-09 0.000000000000e+00 
8.000000000000e+00 3.054927736916e+01 3.122228404931e-09 -1.626048708302e-09 0.000000000000e+00 
9.000000000000e+00 3.054929596585e+01 6.489392756357e-09 -1.722168291606e-09 0.000000000000e+00 
1.000000000000e+01 3.054930823262e+01 4.336109926259e-09 -1.830427773834e-09 0.000000000000e+00 
1.100000000000e+01 3.054947544320e+01 6.171700130000e-10 -1.879962818793e-09 0.000000000000e+00 
1.200000000000e+01 3.054964499339e+01 9.220151602052e-10 -1.895355186427e-09 0.000000000000e+00 
1.300000000000e+01 3.054973064573e+01 2.231924881082e-08 -2.127774551967e-09 0.000000000000e+00 
1.400000000000e+01 3.054973363938e+01 4.949305261655e-08 -2.845924344166e-09 0.000000000000e+00 
1.500000000000e+01 3.054973696217e+01 6.527495474179e-08 -3.993650335745e-09 0.000000000000e+00 
1.600000000000e+01 3.054974038787e+01 3.873770578861e-08 -5.033820254697e-09 0.000000000000e+00 
1.700000000000e+01 3.054986014600e+01 1.361058416459e-09 -5.434826145769e-09 0.000000000000e+00 
1.800000000000e+01 3.055122980592e+01 6.972080529224e-10 -5.455409499704e-09 0.000000000000e+00 
1.900000000000e+01 3.055148687713e+01 5.923555092555e-10 -5.468305599028e-09 0.000000000000e+00 
2.000000000000e+01 3.058121199914e+01 1.602336280310e-09 -5.490253171643e-09 0.000000000000e+00 
2.100000000000e+01 3.058130727704e+01 3.494248156061e-09 -5.541220217653e-09 0.000000000000e+00 
2.200000000000e+01 3.058138851778e+01 2.367661859541e-09 -5.599840645835e-09 0.000000000000e+00 
2.300000000000e+01 3.058171874034e+01 8.823208546461e-10 -5.632341181398e-09 0.000000000000e+00 
2.400000000000e+01 3.058209747531e+01 4.341305231384e-10 -5.645505986522e-09 0.000000000000e+00 
2.500000000000e+01 3.058904681830e+01 1.033709278678e-10 -5.650881119139e-09 0.000000000000e+00 
2.600000000000e+01 3.059097766180e+01 7.984012848897e-10 -5.659899045150e-09 0.000000000000e+00 
2.700000000000e+01 3.059119598757e+01 8.053746809803e-10 -5.675937139478e-09 0.000000000000e+00 
2.800000000000e+01 3.059298369489e+01 1.774667790150e-09 -5.701738124400e-09 0.000000000000e+00 
2.900000000000e+01 3.059307740817e+01 2.096501420453e-09 -5.740450613890e-09 0.000000000000e+00 
3.000000000000e+01 3.059346605997e+01 8.194163559905e-10 -5.761416019499e-09 0.000000000000e+00 
