 TITLE = "Profiles along polylines"
 VARIABLES = "DIST" "HEAD" "VELOCITY_X1" "VELOCITY_Y1" "VELOCITY_Z1" 
 ZONE T="TIME=0.000000000000e+00"
0.000000000000e+00 3.000000000000e+01 0.000000000000e+00 0.000000000000e+00 0.000000000000e+00 
1.000000000000e+00 3.000000000000e+01 0.000000000000e+00 0.000000000000e+00 0.000000000000e+00 
2.000000000000e+00 3.000000000000e+01 0.000000000000e+00 0.000000000000e+00 0.000000000000e+00 
3.000000000000e+00 3.000000000000e+01 0.000000000000e+00 0.000000000000e+00 0.000000000000e+00 
4.000000000000e+00 3.000000000000e+01 0.000000000000e+00 0.000000000000e+00 0.000000000000e+00 
5.000000000000e+00 3.000000000000e+01 0.000000000000e+00 0.000000000000e+00 0.000000000000e+00 
6.000000000000e+00 3.000000000000e+01 0.000000000000e+00 0.000000000000e+00 0.000000000000e+00 
7.000000000000e+00 3.000000000000e+01 0.000000000000e+00 0.000000000000e+00 0.000000000000e+00 
8.000000000000e+00 3.000000000000e+01 0.000000000000e+00 0.000000000000e+00 0.000000000000e+00 
9.000000000000e+00 3.000000000000e+01 0.000000000000e+00 0.000000000000e+00 0.000000000000e+00 
1.000000000000e+01 3.000000000000e+01 0.000000000000e+00 0.000000000000e+00 0.000000000000e+00 
1.100000000000e+01 3.000000000000e+01 0.000000000000e+00 0.000000000000e+00 0.000000000000e+00 
1.200000000000e+01 3.000000000000e+01 0.000000000000e+00 0.000000000000e+00 0.000000000000e+00 
1.300000000000e+01 3.000000000000e+01 0.000000000000e+00 0.000000000000e+00 0.000000000000e+00 
1.400000000000e+01 3.000000000000e+01 0.000000000000e+00 0.000000000000e+00 0.000000000000e+00 
1.500000000000e+01 3.000000000000e+01 0.000000000000e+00 0.000000000000e+00 0.000000000000e+00 
1.600000000000e+01 3.000000000000e+01 0.000000000000e+00 0.000000000000e+00 0.000000000000e+00 
1.700000000000e+01 3.000000000000e+01 0.000000000000e+00 0.000000000000e+00 0.000000000000e+00 
1.800000000000e+01 3.000000000000e+01 0.000000000000e+00 0.000000000000e+00 0.000000000000e+00 
1.900000000000e+01 3.000000000000e+01 0.000000000000e+00 0.000000000000e+00 0.000000000000e+00 
2.000000000000e+01 3.000000000000e+01 0.000000000000e+00 0.000000000000e+00 0.000000000000e+00 
2.100000000000e+01 3.000000000000e+01 0.000000000000e+00 0.000000000000e+00 0.000000000000e+00 
2.200000000000e+01 3.000000000000e+01 0.000000000000e+00 0.000000000000e+00 0.000000000000e+00 
2.300000000000e+01 3.000000000000e+01 0.000000000000e+00 0.000000000000e+00 0.000000000000e+00 
2.400000000000e+01 3.000000000000e+01 0.000000000000e+00 0.000000000000e+00 0.000000000000e+00 
2.500000000000e+01 3.000000000000e+01 0.000000000000e+00 0.000000000000e+00 0.000000000000e+00 
2.600000000000e+01 3.000000000000e+01 0.000000000000e+00 0.000000000000e+00 0.000000000000e+00 
2.700000000000e+01 3.000000000000e+01 0.000000000000e+00 0.000000000000e+00 0.000000000000e+00 
2.800000000000e+01 3.000000000000e+01 0.000000000000e+00 0.000000000000e+00 0.000000000000e+00 
2.900000000000e+01 3.000000000000e+01 0.000000000000e+00 0.000000000000e+00 0.000000000000e+00 
3.000000000000e+01 3.000000000000e+01 0.000000000000e+00 0.000000000000e+00 0.000000000000e+00 
 TITLE = "Profiles along polylines"
 VARIABLES = "DIST" "HEAD" "VELOCITY_X1" "VELOCITY_Y1" "VELOCITY_Z1" 
 ZONE T="TIME=1.797693134862e+308"
0.000000000000e+00 3.000000000000e+01 4.840001346171e-08 3.267769025435e-20 0.000000000000e+00 
1.000000000000e+00 3.000000000000e+01 2.491250475472e-08 1.664844715744e-20 0.000000000000e+00 
2.000000000000e+00 3.000000000000e+01 1.522459628405e-09 9.291494105615e-22 0.000000000000e+00 
3.000000000000e+00 3.000000000000e+01 3.003751348883e-07 -1.562716655112e-19 0.000000000000e+00 
4.000000000000e+00 3.000000000000e+01 3.012881759199e-07 -1.543088600445e-19 0.000000000000e+00 
5.000000000000e+00 3.000000000000e+01 1.709590877484e-07 -1.490953241264e-19 0.000000000000e+00 
6.000000000000e+00 3.000000000000e+01 4.258710981184e-07 -8.240198276496e-20 0.000000000000e+00 
7.000000000000e+00 3.000000000000e+01 2.692107611898e-07 -8.202535888460e-20 0.000000000000e+00 
8.000000000000e+00 3.000000000000e+01 5.959046436831e-08 -5.193073767499e-20 0.000000000000e+00 
9.000000000000e+00 3.000000000000e+01 1.238896664320e-07 6.714160009759e-20 0.000000000000e+00 
1.000000000000e+01 3.000000000000e+01 8.279616972732e-08 1.220437962607e-19 0.000000000000e+00 
1.100000000000e+01 3.000000000000e+01 1.181391423889e-08 -9.178793612298e-21 0.000000000000e+00 
1.200000000000e+01 3.000000000000e+01 1.769374703057e-08 1.222178974333e-20 0.000000000000e+00 
1.300000000000e+01 3.000000000000e+01 4.288583602287e-07 -2.618384762396e-19 0.000000000000e+00 
1.400000000000e+01 3.000000000000e+01 9.510407213131e-07 -1.471515831899e-18 0.000000000000e+00 
1.500000000000e+01 3.000000000000e+01 1.254371163812e-06 1.886776925479e-18 0.000000000000e+00 
1.600000000000e+01 3.000000000000e+01 7.444576650390e-07 2.970875796313e-20 0.000000000000e+00 
1.700000000000e+01 3.000000000000e+01 2.621375519045e-08 2.473575801593e-20 0.000000000000e+00 
1.800000000000e+01 3.000000000000e+01 1.376284393966e-08 1.104998046424e-20 0.000000000000e+00 
1.900000000000e+01 3.000000000000e+01 1.174672784194e-08 1.013507367226e-20 0.000000000000e+00 
2.000000000000e+01 3.000000000000e+01 4.865073823538e-08 1.355015466636e-20 0.000000000000e+00 
2.100000000000e+01 3.000000000000e+01 1.062437286973e-07 6.612418001057e-20 0.000000000000e+00 
2.200000000000e+01 3.000000000000e+01 7.211644424873e-08 5.156772943288e-20 0.000000000000e+00 
2.300000000000e+01 3.000000000000e+01 2.710856544670e-08 -1.758650363435e-20 0.000000000000e+00 
2.400000000000e+01 3.000000000000e+01 1.348069852129e-08 -1.125815997360e-20 0.000000000000e+00 
2.500000000000e+01 3.000000000000e+01 3.859266152459e-09 -2.509291162271e-21 0.000000000000e+00 
2.600000000000e+01 3.000000000000e+01 3.127091324279e-08 1.970424998458e-20 0.000000000000e+00 
2.700000000000e+01 3.000000000000e+01 3.179227351401e-08 2.197218939271e-20 0.000000000000e+00 
2.800000000000e+01 3.000000000000e+01 7.622443725706e-08 5.296990316094e-20 0.000000000000e+00 
2.900000000000e+01 3.000000000000e+01 9.121568837062e-08 4.476003541495e-20 0.000000000000e+00 
3.000000000000e+01 3.000000000000e+01 4.038426023177e-08 -1.663677346755e-20 0.000000000000e+00 
