VARIABLES = "X","Y","Z",VELOCITY1_X,VELOCITY1_Y,VELOCITY1_Z
ZONE T="0.000000000000e+00s", 
7.490000000000e+02 0.000000000000e+00 5.000000000000e-01 0.000000000000e+00 0.000000000000e+00 0.000000000000e+00
7.500000000000e+02 0.000000000000e+00 5.000000000000e-01 0.000000000000e+00 0.000000000000e+00 0.000000000000e+00
7.490000000000e+02 0.000000000000e+00 1.500000000000e+00 0.000000000000e+00 0.000000000000e+00 0.000000000000e+00
7.500000000000e+02 0.000000000000e+00 1.500000000000e+00 0.000000000000e+00 0.000000000000e+00 0.000000000000e+00
7.490000000000e+02 0.000000000000e+00 2.500000000000e+00 0.000000000000e+00 0.000000000000e+00 0.000000000000e+00
7.500000000000e+02 0.000000000000e+00 2.500000000000e+00 0.000000000000e+00 0.000000000000e+00 0.000000000000e+00
7.490000000000e+02 0.000000000000e+00 3.500000000000e+00 0.000000000000e+00 0.000000000000e+00 0.000000000000e+00
7.500000000000e+02 0.000000000000e+00 3.500000000000e+00 0.000000000000e+00 0.000000000000e+00 0.000000000000e+00
7.490000000000e+02 0.000000000000e+00 4.500000000000e+00 0.000000000000e+00 0.000000000000e+00 0.000000000000e+00
7.500000000000e+02 0.000000000000e+00 4.500000000000e+00 0.000000000000e+00 0.000000000000e+00 0.000000000000e+00
7.490000000000e+02 0.000000000000e+00 5.500000000000e+00 0.000000000000e+00 0.000000000000e+00 0.000000000000e+00
7.500000000000e+02 0.000000000000e+00 5.500000000000e+00 0.000000000000e+00 0.000000000000e+00 0.000000000000e+00
7.490000000000e+02 0.000000000000e+00 6.500000000000e+00 0.000000000000e+00 0.000000000000e+00 0.000000000000e+00
7.500000000000e+02 0.000000000000e+00 6.500000000000e+00 0.000000000000e+00 0.000000000000e+00 0.000000000000e+00
7.490000000000e+02 0.000000000000e+00 7.500000000000e+00 0.000000000000e+00 0.000000000000e+00 0.000000000000e+00
7.500000000000e+02 0.000000000000e+00 7.500000000000e+00 0.000000000000e+00 0.000000000000e+00 0.000000000000e+00
7.490000000000e+02 0.000000000000e+00 8.500000000000e+00 0.000000000000e+00 0.000000000000e+00 0.000000000000e+00
7.500000000000e+02 0.000000000000e+00 8.500000000000e+00 0.000000000000e+00 0.000000000000e+00 0.000000000000e+00
7.490000000000e+02 0.000000000000e+00 9.500000000000e+00 0.000000000000e+00 0.000000000000e+00 0.000000000000e+00
7.500000000000e+02 0.000000000000e+00 9.500000000000e+00 0.000000000000e+00 0.000000000000e+00 0.000000000000e+00
7.490000000000e+02 0.000000000000e+00 1.050000000000e+01 0.000000000000e+00 0.000000000000e+00 0.000000000000e+00
7.500000000000e+02 0.000000000000e+00 1.050000000000e+01 0.000000000000e+00 0.000000000000e+00 0.000000000000e+00
7.490000000000e+02 0.000000000000e+00 1.150000000000e+01 0.000000000000e+00 0.000000000000e+00 0.000000000000e+00
7.500000000000e+02 0.000000000000e+00 1.150000000000e+01 0.000000000000e+00 0.000000000000e+00 0.000000000000e+00
7.490000000000e+02 0.000000000000e+00 1.250000000000e+01 0.000000000000e+00 0.000000000000e+00 0.000000000000e+00
7.500000000000e+02 0.000000000000e+00 1.250000000000e+01 0.000000000000e+00 0.000000000000e+00 0.000000000000e+00
7.490000000000e+02 0.000000000000e+00 1.350000000000e+01 0.000000000000e+00 0.000000000000e+00 0.000000000000e+00
7.500000000000e+02 0.000000000000e+00 1.350000000000e+01 0.000000000000e+00 0.000000000000e+00 0.000000000000e+00
7.490000000000e+02 0.000000000000e+00 1.450000000000e+01 0.000000000000e+00 0.000000000000e+00 0.000000000000e+00
7.500000000000e+02 0.000000000000e+00 1.450000000000e+01 0.000000000000e+00 0.000000000000e+00 0.000000000000e+00
7.490000000000e+02 0.000000000000e+00 1.550000000000e+01 0.000000000000e+00 0.000000000000e+00 0.000000000000e+00
7.500000000000e+02 0.000000000000e+00 1.550000000000e+01 0.000000000000e+00 0.000000000000e+00 0.000000000000e+00
7.490000000000e+02 0.000000000000e+00 1.650000000000e+01 0.000000000000e+00 0.000000000000e+00 0.000000000000e+00
7.500000000000e+02 0.000000000000e+00 1.650000000000e+01 0.000000000000e+00 0.000000000000e+00 0.000000000000e+00
7.490000000000e+02 0.000000000000e+00 1.750000000000e+01 0.000000000000e+00 0.000000000000e+00 0.000000000000e+00
7.500000000000e+02 0.000000000000e+00 1.750000000000e+01 0.000000000000e+00 0.000000000000e+00 0.000000000000e+00
7.490000000000e+02 0.000000000000e+00 1.850000000000e+01 0.000000000000e+00 0.000000000000e+00 0.000000000000e+00
7.500000000000e+02 0.000000000000e+00 1.850000000000e+01 0.000000000000e+00 0.000000000000e+00 0.000000000000e+00
7.490000000000e+02 0.000000000000e+00 1.950000000000e+01 0.000000000000e+00 0.000000000000e+00 0.000000000000e+00
7.500000000000e+02 0.000000000000e+00 1.950000000000e+01 0.000000000000e+00 0.000000000000e+00 0.000000000000e+00
7.490000000000e+02 0.000000000000e+00 2.050000000000e+01 0.000000000000e+00 0.000000000000e+00 0.000000000000e+00
7.500000000000e+02 0.000000000000e+00 2.050000000000e+01 0.000000000000e+00 0.000000000000e+00 0.000000000000e+00
7.490000000000e+02 0.000000000000e+00 2.150000000000e+01 0.000000000000e+00 0.000000000000e+00 0.000000000000e+00
7.500000000000e+02 0.000000000000e+00 2.150000000000e+01 0.000000000000e+00 0.000000000000e+00 0.000000000000e+00
7.490000000000e+02 0.000000000000e+00 2.250000000000e+01 0.000000000000e+00 0.000000000000e+00 0.000000000000e+00
7.500000000000e+02 0.000000000000e+00 2.250000000000e+01 0.000000000000e+00 0.000000000000e+00 0.000000000000e+00
7.490000000000e+02 0.000000000000e+00 2.350000000000e+01 0.000000000000e+00 0.000000000000e+00 0.000000000000e+00
7.500000000000e+02 0.000000000000e+00 2.350000000000e+01 0.000000000000e+00 0.000000000000e+00 0.000000000000e+00
7.490000000000e+02 0.000000000000e+00 2.450000000000e+01 0.000000000000e+00 0.000000000000e+00 0.000000000000e+00
7.500000000000e+02 0.000000000000e+00 2.450000000000e+01 0.000000000000e+00 0.000000000000e+00 0.000000000000e+00
7.490000000000e+02 0.000000000000e+00 2.550000000000e+01 0.000000000000e+00 0.000000000000e+00 0.000000000000e+00
7.500000000000e+02 0.000000000000e+00 2.550000000000e+01 0.000000000000e+00 0.000000000000e+00 0.000000000000e+00
7.490000000000e+02 0.000000000000e+00 2.650000000000e+01 0.000000000000e+00 0.000000000000e+00 0.000000000000e+00
7.500000000000e+02 0.000000000000e+00 2.650000000000e+01 0.000000000000e+00 0.000000000000e+00 0.000000000000e+00
7.490000000000e+02 0.000000000000e+00 2.750000000000e+01 0.000000000000e+00 0.000000000000e+00 0.000000000000e+00
7.500000000000e+02 0.000000000000e+00 2.750000000000e+01 0.000000000000e+00 0.000000000000e+00 0.000000000000e+00
7.490000000000e+02 0.000000000000e+00 2.850000000000e+01 0.000000000000e+00 0.000000000000e+00 0.000000000000e+00
7.500000000000e+02 0.000000000000e+00 2.850000000000e+01 0.000000000000e+00 0.000000000000e+00 0.000000000000e+00
7.490000000000e+02 0.000000000000e+00 2.950000000000e+01 0.000000000000e+00 0.000000000000e+00 0.000000000000e+00
7.500000000000e+02 0.000000000000e+00 2.950000000000e+01 0.000000000000e+00 0.000000000000e+00 0.000000000000e+00
VARIABLES = "X","Y","Z",VELOCITY1_X,VELOCITY1_Y,VELOCITY1_Z
ZONE T="1.797693134862e+308s", 
7.490000000000e+02 0.000000000000e+00 5.000000000000e-01 3.819870733701e-08 -2.541481781866e-11 0.000000000000e+00
7.500000000000e+02 0.000000000000e+00 5.000000000000e-01 3.824953364898e-08 -2.541297078809e-11 0.000000000000e+00
7.490000000000e+02 0.000000000000e+00 1.500000000000e+00 1.124354376718e-09 -5.157783029901e-11 0.000000000000e+00
7.500000000000e+02 0.000000000000e+00 1.500000000000e+00 1.125850427724e-09 -5.157410402991e-11 0.000000000000e+00
7.490000000000e+02 0.000000000000e+00 2.500000000000e+00 1.277531081065e-09 -5.317598191443e-11 0.000000000000e+00
7.500000000000e+02 0.000000000000e+00 2.500000000000e+00 1.279231048107e-09 -5.317214299030e-11 0.000000000000e+00
7.490000000000e+02 0.000000000000e+00 3.500000000000e+00 4.723846769504e-07 -3.683541225010e-10 0.000000000000e+00
7.500000000000e+02 0.000000000000e+00 3.500000000000e+00 4.730132935752e-07 -3.683284089599e-10 0.000000000000e+00
7.490000000000e+02 0.000000000000e+00 4.500000000000e+00 2.713037894743e-09 -6.844891343367e-10 0.000000000000e+00
7.500000000000e+02 0.000000000000e+00 4.500000000000e+00 2.716648349406e-09 -6.844416132623e-10 0.000000000000e+00
7.490000000000e+02 0.000000000000e+00 5.500000000000e+00 2.660901471083e-07 -8.634084297785e-10 0.000000000000e+00
7.500000000000e+02 0.000000000000e+00 5.500000000000e+00 2.664443544875e-07 -8.633500033121e-10 0.000000000000e+00
7.490000000000e+02 0.000000000000e+00 6.500000000000e+00 4.034920736740e-07 -1.309094752631e-09 0.000000000000e+00
7.500000000000e+02 0.000000000000e+00 6.500000000000e+00 4.040291865258e-07 -1.309009324285e-09 0.000000000000e+00
7.490000000000e+02 0.000000000000e+00 7.500000000000e+00 1.976202603954e-08 -1.590822298586e-09 0.000000000000e+00
7.500000000000e+02 0.000000000000e+00 7.500000000000e+00 1.978833284476e-08 -1.590719825799e-09 0.000000000000e+00
7.490000000000e+02 0.000000000000e+00 8.500000000000e+00 7.383476157728e-08 -1.653127972764e-09 0.000000000000e+00
7.500000000000e+02 0.000000000000e+00 8.500000000000e+00 7.393305740962e-08 -1.653021873218e-09 0.000000000000e+00
7.490000000000e+02 0.000000000000e+00 9.500000000000e+00 1.207017574950e-07 -1.782630774176e-09 0.000000000000e+00
7.500000000000e+02 0.000000000000e+00 9.500000000000e+00 1.208624511482e-07 -1.782517247422e-09 0.000000000000e+00
7.490000000000e+02 0.000000000000e+00 1.050000000000e+01 9.284567212672e-09 -1.869164256513e-09 0.000000000000e+00
7.500000000000e+02 0.000000000000e+00 1.050000000000e+01 9.296928529441e-09 -1.869045813326e-09 0.000000000000e+00
7.490000000000e+02 0.000000000000e+00 1.150000000000e+01 9.216887409427e-09 -1.881483712278e-09 0.000000000000e+00
7.500000000000e+02 0.000000000000e+00 1.150000000000e+01 9.229161469141e-09 -1.881364640972e-09 0.000000000000e+00
7.490000000000e+02 0.000000000000e+00 1.250000000000e+01 1.842358287284e-08 -1.899892686226e-09 0.000000000000e+00
7.500000000000e+02 0.000000000000e+00 1.250000000000e+01 1.844812286142e-08 -1.899772791453e-09 0.000000000000e+00
7.490000000000e+02 0.000000000000e+00 1.350000000000e+01 6.506766029326e-07 -2.345573202177e-09 0.000000000000e+00
7.500000000000e+02 0.000000000000e+00 1.350000000000e+01 6.515433875565e-07 -2.345434727761e-09 0.000000000000e+00
7.490000000000e+02 0.000000000000e+00 1.450000000000e+01 8.330570336408e-07 -3.333878408350e-09 0.000000000000e+00
7.500000000000e+02 0.000000000000e+00 1.450000000000e+01 8.341667766581e-07 -3.333699102283e-09 0.000000000000e+00
7.490000000000e+02 0.000000000000e+00 1.550000000000e+01 1.123796751759e-06 -4.637330609507e-09 0.000000000000e+00
7.500000000000e+02 0.000000000000e+00 1.550000000000e+01 1.125293804678e-06 -4.637097485471e-09 0.000000000000e+00
7.490000000000e+02 0.000000000000e+00 1.650000000000e+01 3.750678576885e-08 -5.410874489434e-09 0.000000000000e+00
7.500000000000e+02 0.000000000000e+00 1.650000000000e+01 3.755675089104e-08 -5.410609670585e-09 0.000000000000e+00
7.490000000000e+02 0.000000000000e+00 1.750000000000e+01 3.295976410214e-09 -5.438056698807e-09 0.000000000000e+00
7.500000000000e+02 0.000000000000e+00 1.750000000000e+01 3.300368411352e-09 -5.437790852502e-09 0.000000000000e+00
7.490000000000e+02 0.000000000000e+00 1.850000000000e+01 1.760699444259e-08 -5.452001925181e-09 0.000000000000e+00
7.500000000000e+02 0.000000000000e+00 1.850000000000e+01 1.763048761711e-08 -5.451736090462e-09 0.000000000000e+00
7.490000000000e+02 0.000000000000e+00 1.950000000000e+01 1.526324044206e-10 -5.463853345122e-09 0.000000000000e+00
7.500000000000e+02 0.000000000000e+00 1.950000000000e+01 1.528368382910e-10 -5.463587607930e-09 0.000000000000e+00
7.490000000000e+02 0.000000000000e+00 2.050000000000e+01 4.797135075995e-08 -5.496956671696e-09 0.000000000000e+00
7.500000000000e+02 0.000000000000e+00 2.050000000000e+01 4.803739576143e-08 -5.496717978143e-09 0.000000000000e+00
7.490000000000e+02 0.000000000000e+00 2.150000000000e+01 5.697440786698e-08 -5.569152808626e-09 0.000000000000e+00
7.500000000000e+02 0.000000000000e+00 2.150000000000e+01 5.705285448240e-08 -5.568973268092e-09 0.000000000000e+00
7.490000000000e+02 0.000000000000e+00 2.250000000000e+01 1.413582580822e-08 -5.618075017426e-09 0.000000000000e+00
7.500000000000e+02 0.000000000000e+00 2.250000000000e+01 1.415529040562e-08 -5.617935625989e-09 0.000000000000e+00
7.490000000000e+02 0.000000000000e+00 2.350000000000e+01 1.236395736785e-08 -5.636309285205e-09 0.000000000000e+00
7.500000000000e+02 0.000000000000e+00 2.350000000000e+01 1.238098511268e-08 -5.636184938609e-09 0.000000000000e+00
7.490000000000e+02 0.000000000000e+00 2.450000000000e+01 6.748844490541e-10 -5.645282795570e-09 0.000000000000e+00
7.500000000000e+02 0.000000000000e+00 2.450000000000e+01 6.758143698262e-10 -5.645165893671e-09 0.000000000000e+00
7.490000000000e+02 0.000000000000e+00 2.550000000000e+01 2.430266195364e-09 -5.647426187255e-09 0.000000000000e+00
7.500000000000e+02 0.000000000000e+00 2.550000000000e+01 2.433624195057e-09 -5.647311229837e-09 0.000000000000e+00
7.490000000000e+02 0.000000000000e+00 2.650000000000e+01 2.155458300563e-08 -5.663995185032e-09 0.000000000000e+00
7.500000000000e+02 0.000000000000e+00 2.650000000000e+01 2.158438801161e-08 -5.663895608477e-09 0.000000000000e+00
7.490000000000e+02 0.000000000000e+00 2.750000000000e+01 2.639878910931e-09 -5.680710459539e-09 0.000000000000e+00
7.500000000000e+02 0.000000000000e+00 2.750000000000e+01 2.643529743955e-09 -5.680626440621e-09 0.000000000000e+00
7.490000000000e+02 0.000000000000e+00 2.850000000000e+01 5.067515596855e-08 -5.717563893384e-09 0.000000000000e+00
7.500000000000e+02 0.000000000000e+00 2.850000000000e+01 5.074527215926e-08 -5.717514676393e-09 0.000000000000e+00
7.490000000000e+02 0.000000000000e+00 2.950000000000e+01 1.230858925872e-08 -5.761101824492e-09 0.000000000000e+00
7.500000000000e+02 0.000000000000e+00 2.950000000000e+01 1.232562019797e-08 -5.761093777577e-09 0.000000000000e+00
