 TITLE = "Profiles along polylines"
 VARIABLES = "DIST" "HEAD" "VELOCITY_X1" "VELOCITY_Y1" "VELOCITY_Z1" 
 ZONE T="TIME=0.000000000000e+00"
0.000000000000e+00 3.000000000000e+01 0.000000000000e+00 0.000000000000e+00 0.000000000000e+00 
1.000000000000e+00 3.000000000000e+01 0.000000000000e+00 0.000000000000e+00 0.000000000000e+00 
2.000000000000e+00 3.000000000000e+01 0.000000000000e+00 0.000000000000e+00 0.000000000000e+00 
3.000000000000e+00 3.000000000000e+01 0.000000000000e+00 0.000000000000e+00 0.000000000000e+00 
4.000000000000e+00 3.000000000000e+01 0.000000000000e+00 0.000000000000e+00 0.000000000000e+00 
5.000000000000e+00 3.000000000000e+01 0.000000000000e+00 0.000000000000e+00 0.000000000000e+00 
6.000000000000e+00 3.000000000000e+01 0.000000000000e+00 0.000000000000e+00 0.000000000000e+00 
7.000000000000e+00 3.000000000000e+01 0.000000000000e+00 0.000000000000e+00 0.000000000000e+00 
8.000000000000e+00 3.000000000000e+01 0.000000000000e+00 0.000000000000e+00 0.000000000000e+00 
9.000000000000e+00 3.000000000000e+01 0.000000000000e+00 0.000000000000e+00 0.000000000000e+00 
1.000000000000e+01 3.000000000000e+01 0.000000000000e+00 0.000000000000e+00 0.000000000000e+00 
1.100000000000e+01 3.000000000000e+01 0.000000000000e+00 0.000000000000e+00 0.000000000000e+00 
1.200000000000e+01 3.000000000000e+01 0.000000000000e+00 0.000000000000e+00 0.000000000000e+00 
1.300000000000e+01 3.000000000000e+01 0.000000000000e+00 0.000000000000e+00 0.000000000000e+00 
1.400000000000e+01 3.000000000000e+01 0.000000000000e+00 0.000000000000e+00 0.000000000000e+00 
1.500000000000e+01 3.000000000000e+01 0.000000000000e+00 0.000000000000e+00 0.000000000000e+00 
1.600000000000e+01 3.000000000000e+01 0.000000000000e+00 0.000000000000e+00 0.000000000000e+00 
1.700000000000e+01 3.000000000000e+01 0.000000000000e+00 0.000000000000e+00 0.000000000000e+00 
1.800000000000e+01 3.000000000000e+01 0.000000000000e+00 0.000000000000e+00 0.000000000000e+00 
1.900000000000e+01 3.000000000000e+01 0.000000000000e+00 0.000000000000e+00 0.000000000000e+00 
2.000000000000e+01 3.000000000000e+01 0.000000000000e+00 0.000000000000e+00 0.000000000000e+00 
2.100000000000e+01 3.000000000000e+01 0.000000000000e+00 0.000000000000e+00 0.000000000000e+00 
2.200000000000e+01 3.000000000000e+01 0.000000000000e+00 0.000000000000e+00 0.000000000000e+00 
2.300000000000e+01 3.000000000000e+01 0.000000000000e+00 0.000000000000e+00 0.000000000000e+00 
2.400000000000e+01 3.000000000000e+01 0.000000000000e+00 0.000000000000e+00 0.000000000000e+00 
2.500000000000e+01 3.000000000000e+01 0.000000000000e+00 0.000000000000e+00 0.000000000000e+00 
2.600000000000e+01 3.000000000000e+01 0.000000000000e+00 0.000000000000e+00 0.000000000000e+00 
2.700000000000e+01 3.000000000000e+01 0.000000000000e+00 0.000000000000e+00 0.000000000000e+00 
2.800000000000e+01 3.000000000000e+01 0.000000000000e+00 0.000000000000e+00 0.000000000000e+00 
2.900000000000e+01 3.000000000000e+01 0.000000000000e+00 0.000000000000e+00 0.000000000000e+00 
3.000000000000e+01 3.000000000000e+01 0.000000000000e+00 0.000000000000e+00 0.000000000000e+00 
 TITLE = "Profiles along polylines"
 VARIABLES = "DIST" "HEAD" "VELOCITY_X1" "VELOCITY_Y1" "VELOCITY_Z1" 
 ZONE T="TIME=1.797693134862e+308"
0.000000000000e+00 3.055030351662e+01 2.548574233243e-11 -2.548516099220e-11 0.000000000000e+00 
1.000000000000e+00 3.055030406937e+01 1.311749925792e-11 -3.860424716145e-11 0.000000000000e+00 
2.000000000000e+00 3.055034218238e+01 8.012314025251e-13 -5.252463895327e-11 0.000000000000e+00 
3.000000000000e+00 3.055037676505e+01 1.580099755710e-10 -2.113324009916e-10 0.000000000000e+00 
4.000000000000e+00 3.055037741283e+01 1.584834856882e-10 -5.278416277977e-10 0.000000000000e+00 
5.000000000000e+00 3.055058700725e+01 8.966897473212e-11 -7.760127505046e-10 0.000000000000e+00 
6.000000000000e+00 3.055058970269e+01 2.233602521810e-10 -1.089048887300e-09 0.000000000000e+00 
7.000000000000e+00 3.055059239755e+01 1.411864557658e-10 -1.453621121707e-09 0.000000000000e+00 
8.000000000000e+00 3.055065926002e+01 3.122207946015e-11 -1.626048341119e-09 0.000000000000e+00 
9.000000000000e+00 3.055067785670e+01 6.489334229483e-11 -1.722166100645e-09 0.000000000000e+00 
1.000000000000e+01 3.055069012344e+01 4.335977858790e-11 -1.830425791288e-09 0.000000000000e+00 
1.100000000000e+01 3.055085733399e+01 6.171586315209e-12 -1.879962451388e-09 0.000000000000e+00 
1.200000000000e+01 3.055102688414e+01 9.220097631119e-12 -1.895354747875e-09 0.000000000000e+00 
1.300000000000e+01 3.055111253646e+01 2.231934828954e-10 -2.127766977951e-09 0.000000000000e+00 
1.400000000000e+01 3.055111553009e+01 4.949254912944e-10 -2.845907586461e-09 0.000000000000e+00 
1.500000000000e+01 3.055111885286e+01 6.527407728979e-10 -3.993626097270e-09 0.000000000000e+00 
1.600000000000e+01 3.055112227854e+01 3.873646139875e-10 -5.033805113993e-09 0.000000000000e+00 
1.700000000000e+01 3.055124203666e+01 1.361010090569e-11 -5.434825899790e-09 0.000000000000e+00 
1.800000000000e+01 3.055261169663e+01 6.972062225253e-12 -5.455409441619e-09 0.000000000000e+00 
1.900000000000e+01 3.055286876783e+01 5.923377964694e-12 -5.468305429451e-09 0.000000000000e+00 
2.000000000000e+01 3.058259388993e+01 1.602333914851e-11 -5.490252663974e-09 0.000000000000e+00 
2.100000000000e+01 3.058268916781e+01 3.494203406394e-11 -5.541219012041e-09 0.000000000000e+00 
2.200000000000e+01 3.058277040853e+01 2.367602430723e-11 -5.599839952275e-09 0.000000000000e+00 
2.300000000000e+01 3.058310063109e+01 8.823032149271e-12 -5.632341152526e-09 0.000000000000e+00 
2.400000000000e+01 3.058347936605e+01 4.341196860680e-12 -5.645505981158e-09 0.000000000000e+00 
2.500000000000e+01 3.059042870909e+01 1.033700462549e-12 -5.650881139003e-09 0.000000000000e+00 
2.600000000000e+01 3.059235955260e+01 7.983980418288e-12 -5.659898787963e-09 0.000000000000e+00 
2.700000000000e+01 3.059257787834e+01 8.053563908938e-12 -5.675936867832e-09 0.000000000000e+00 
2.800000000000e+01 3.059436558565e+01 1.774659916209e-11 -5.701737492756e-09 0.000000000000e+00 
2.900000000000e+01 3.059445929892e+01 2.096455890331e-11 -5.740449779553e-09 0.000000000000e+00 
3.000000000000e+01 3.059484795068e+01 8.193877949182e-12 -5.761415585569e-09 0.000000000000e+00 
