VARIABLES = "X","Y","Z",VELOCITY1_X,VELOCITY1_Y,VELOCITY1_Z
ZONE T="0.000000000000e+00s", 
8.990000000000e+02 0.000000000000e+00 5.000000000000e-01 0.000000000000e+00 0.000000000000e+00 0.000000000000e+00
9.000000000000e+02 0.000000000000e+00 5.000000000000e-01 0.000000000000e+00 0.000000000000e+00 0.000000000000e+00
8.990000000000e+02 0.000000000000e+00 1.500000000000e+00 0.000000000000e+00 0.000000000000e+00 0.000000000000e+00
9.000000000000e+02 0.000000000000e+00 1.500000000000e+00 0.000000000000e+00 0.000000000000e+00 0.000000000000e+00
8.990000000000e+02 0.000000000000e+00 2.500000000000e+00 0.000000000000e+00 0.000000000000e+00 0.000000000000e+00
9.000000000000e+02 0.000000000000e+00 2.500000000000e+00 0.000000000000e+00 0.000000000000e+00 0.000000000000e+00
8.990000000000e+02 0.000000000000e+00 3.500000000000e+00 0.000000000000e+00 0.000000000000e+00 0.000000000000e+00
9.000000000000e+02 0.000000000000e+00 3.500000000000e+00 0.000000000000e+00 0.000000000000e+00 0.000000000000e+00
8.990000000000e+02 0.000000000000e+00 4.500000000000e+00 0.000000000000e+00 0.000000000000e+00 0.000000000000e+00
9.000000000000e+02 0.000000000000e+00 4.500000000000e+00 0.000000000000e+00 0.000000000000e+00 0.000000000000e+00
8.990000000000e+02 0.000000000000e+00 5.500000000000e+00 0.000000000000e+00 0.000000000000e+00 0.000000000000e+00
9.000000000000e+02 0.000000000000e+00 5.500000000000e+00 0.000000000000e+00 0.000000000000e+00 0.000000000000e+00
8.990000000000e+02 0.000000000000e+00 6.500000000000e+00 0.000000000000e+00 0.000000000000e+00 0.000000000000e+00
9.000000000000e+02 0.000000000000e+00 6.500000000000e+00 0.000000000000e+00 0.000000000000e+00 0.000000000000e+00
8.990000000000e+02 0.000000000000e+00 7.500000000000e+00 0.000000000000e+00 0.000000000000e+00 0.000000000000e+00
9.000000000000e+02 0.000000000000e+00 7.500000000000e+00 0.000000000000e+00 0.000000000000e+00 0.000000000000e+00
8.990000000000e+02 0.000000000000e+00 8.500000000000e+00 0.000000000000e+00 0.000000000000e+00 0.000000000000e+00
9.000000000000e+02 0.000000000000e+00 8.500000000000e+00 0.000000000000e+00 0.000000000000e+00 0.000000000000e+00
8.990000000000e+02 0.000000000000e+00 9.500000000000e+00 0.000000000000e+00 0.000000000000e+00 0.000000000000e+00
9.000000000000e+02 0.000000000000e+00 9.500000000000e+00 0.000000000000e+00 0.000000000000e+00 0.000000000000e+00
8.990000000000e+02 0.000000000000e+00 1.050000000000e+01 0.000000000000e+00 0.000000000000e+00 0.000000000000e+00
9.000000000000e+02 0.000000000000e+00 1.050000000000e+01 0.000000000000e+00 0.000000000000e+00 0.000000000000e+00
8.990000000000e+02 0.000000000000e+00 1.150000000000e+01 0.000000000000e+00 0.000000000000e+00 0.000000000000e+00
9.000000000000e+02 0.000000000000e+00 1.150000000000e+01 0.000000000000e+00 0.000000000000e+00 0.000000000000e+00
8.990000000000e+02 0.000000000000e+00 1.250000000000e+01 0.000000000000e+00 0.000000000000e+00 0.000000000000e+00
9.000000000000e+02 0.000000000000e+00 1.250000000000e+01 0.000000000000e+00 0.000000000000e+00 0.000000000000e+00
8.990000000000e+02 0.000000000000e+00 1.350000000000e+01 0.000000000000e+00 0.000000000000e+00 0.000000000000e+00
9.000000000000e+02 0.000000000000e+00 1.350000000000e+01 0.000000000000e+00 0.000000000000e+00 0.000000000000e+00
8.990000000000e+02 0.000000000000e+00 1.450000000000e+01 0.000000000000e+00 0.000000000000e+00 0.000000000000e+00
9.000000000000e+02 0.000000000000e+00 1.450000000000e+01 0.000000000000e+00 0.000000000000e+00 0.000000000000e+00
8.990000000000e+02 0.000000000000e+00 1.550000000000e+01 0.000000000000e+00 0.000000000000e+00 0.000000000000e+00
9.000000000000e+02 0.000000000000e+00 1.550000000000e+01 0.000000000000e+00 0.000000000000e+00 0.000000000000e+00
8.990000000000e+02 0.000000000000e+00 1.650000000000e+01 0.000000000000e+00 0.000000000000e+00 0.000000000000e+00
9.000000000000e+02 0.000000000000e+00 1.650000000000e+01 0.000000000000e+00 0.000000000000e+00 0.000000000000e+00
8.990000000000e+02 0.000000000000e+00 1.750000000000e+01 0.000000000000e+00 0.000000000000e+00 0.000000000000e+00
9.000000000000e+02 0.000000000000e+00 1.750000000000e+01 0.000000000000e+00 0.000000000000e+00 0.000000000000e+00
8.990000000000e+02 0.000000000000e+00 1.850000000000e+01 0.000000000000e+00 0.000000000000e+00 0.000000000000e+00
9.000000000000e+02 0.000000000000e+00 1.850000000000e+01 0.000000000000e+00 0.000000000000e+00 0.000000000000e+00
8.990000000000e+02 0.000000000000e+00 1.950000000000e+01 0.000000000000e+00 0.000000000000e+00 0.000000000000e+00
9.000000000000e+02 0.000000000000e+00 1.950000000000e+01 0.000000000000e+00 0.000000000000e+00 0.000000000000e+00
8.990000000000e+02 0.000000000000e+00 2.050000000000e+01 0.000000000000e+00 0.000000000000e+00 0.000000000000e+00
9.000000000000e+02 0.000000000000e+00 2.050000000000e+01 0.000000000000e+00 0.000000000000e+00 0.000000000000e+00
8.990000000000e+02 0.000000000000e+00 2.150000000000e+01 0.000000000000e+00 0.000000000000e+00 0.000000000000e+00
9.000000000000e+02 0.000000000000e+00 2.150000000000e+01 0.000000000000e+00 0.000000000000e+00 0.000000000000e+00
8.990000000000e+02 0.000000000000e+00 2.250000000000e+01 0.000000000000e+00 0.000000000000e+00 0.000000000000e+00
9.000000000000e+02 0.000000000000e+00 2.250000000000e+01 0.000000000000e+00 0.000000000000e+00 0.000000000000e+00
8.990000000000e+02 0.000000000000e+00 2.350000000000e+01 0.000000000000e+00 0.000000000000e+00 0.000000000000e+00
9.000000000000e+02 0.000000000000e+00 2.350000000000e+01 0.000000000000e+00 0.000000000000e+00 0.000000000000e+00
8.990000000000e+02 0.000000000000e+00 2.450000000000e+01 0.000000000000e+00 0.000000000000e+00 0.000000000000e+00
9.000000000000e+02 0.000000000000e+00 2.450000000000e+01 0.000000000000e+00 0.000000000000e+00 0.000000000000e+00
8.990000000000e+02 0.000000000000e+00 2.550000000000e+01 0.000000000000e+00 0.000000000000e+00 0.000000000000e+00
9.000000000000e+02 0.000000000000e+00 2.550000000000e+01 0.000000000000e+00 0.000000000000e+00 0.000000000000e+00
8.990000000000e+02 0.000000000000e+00 2.650000000000e+01 0.000000000000e+00 0.000000000000e+00 0.000000000000e+00
9.000000000000e+02 0.000000000000e+00 2.650000000000e+01 0.000000000000e+00 0.000000000000e+00 0.000000000000e+00
8.990000000000e+02 0.000000000000e+00 2.750000000000e+01 0.000000000000e+00 0.000000000000e+00 0.000000000000e+00
9.000000000000e+02 0.000000000000e+00 2.750000000000e+01 0.000000000000e+00 0.000000000000e+00 0.000000000000e+00
8.990000000000e+02 0.000000000000e+00 2.850000000000e+01 0.000000000000e+00 0.000000000000e+00 0.000000000000e+00
9.000000000000e+02 0.000000000000e+00 2.850000000000e+01 0.000000000000e+00 0.000000000000e+00 0.000000000000e+00
8.990000000000e+02 0.000000000000e+00 2.950000000000e+01 0.000000000000e+00 0.000000000000e+00 0.000000000000e+00
9.000000000000e+02 0.000000000000e+00 2.950000000000e+01 0.000000000000e+00 0.000000000000e+00 0.000000000000e+00
VARIABLES = "X","Y","Z",VELOCITY1_X,VELOCITY1_Y,VELOCITY1_Z
ZONE T="1.797693134862e+308s", 
8.990000000000e+02 0.000000000000e+00 5.000000000000e-01 4.559981655383e-08 -2.240418616005e-11 0.000000000000e+00
9.000000000000e+02 0.000000000000e+00 5.000000000000e-01 4.564448959819e-08 -2.232819746153e-11 0.000000000000e+00
8.990000000000e+02 0.000000000000e+00 1.500000000000e+00 1.342220021480e-09 -4.546839680129e-11 0.000000000000e+00
9.000000000000e+02 0.000000000000e+00 1.500000000000e+00 1.343535398707e-09 -4.531418206927e-11 0.000000000000e+00
8.990000000000e+02 0.000000000000e+00 2.500000000000e+00 1.525245646233e-09 -4.688098743504e-11 0.000000000000e+00
9.000000000000e+02 0.000000000000e+00 2.500000000000e+00 1.526744296860e-09 -4.672207583476e-11 0.000000000000e+00
8.990000000000e+02 0.000000000000e+00 3.500000000000e+00 5.640311588036e-07 -3.261307237428e-10 0.000000000000e+00
9.000000000000e+02 0.000000000000e+00 3.500000000000e+00 5.645865332440e-07 -3.250601540123e-10 0.000000000000e+00
8.990000000000e+02 0.000000000000e+00 4.500000000000e+00 3.239611390504e-09 -6.062351539926e-10 0.000000000000e+00
9.000000000000e+02 0.000000000000e+00 4.500000000000e+00 3.242806502507e-09 -6.042502925828e-10 0.000000000000e+00
8.990000000000e+02 0.000000000000e+00 5.500000000000e+00 3.179031913216e-07 -7.670064032337e-10 0.000000000000e+00
9.000000000000e+02 0.000000000000e+00 5.500000000000e+00 3.182206701770e-07 -7.645543708845e-10 0.000000000000e+00
8.990000000000e+02 0.000000000000e+00 6.500000000000e+00 4.820635972925e-07 -1.167552992778e-09 0.000000000000e+00
9.000000000000e+02 0.000000000000e+00 6.500000000000e+00 4.825451025060e-07 -1.163938722327e-09 0.000000000000e+00
8.990000000000e+02 0.000000000000e+00 7.500000000000e+00 2.361088862243e-08 -1.420788285718e-09 0.000000000000e+00
9.000000000000e+02 0.000000000000e+00 7.500000000000e+00 2.363448716803e-08 -1.416440305487e-09 0.000000000000e+00
8.990000000000e+02 0.000000000000e+00 8.500000000000e+00 8.822932059651e-08 -1.477032456355e-09 0.000000000000e+00
9.000000000000e+02 0.000000000000e+00 8.500000000000e+00 8.831785009549e-08 -1.472527812640e-09 0.000000000000e+00
8.990000000000e+02 0.000000000000e+00 9.500000000000e+00 1.442401972508e-07 -1.594073537769e-09 0.000000000000e+00
9.000000000000e+02 0.000000000000e+00 9.500000000000e+00 1.443850926041e-07 -1.589246455979e-09 0.000000000000e+00
8.990000000000e+02 0.000000000000e+00 1.050000000000e+01 1.109605067403e-08 -1.672339796943e-09 0.000000000000e+00
9.000000000000e+02 0.000000000000e+00 1.050000000000e+01 1.110721801920e-08 -1.667298666412e-09 0.000000000000e+00
8.990000000000e+02 0.000000000000e+00 1.150000000000e+01 1.102002362975e-08 -1.683599283028e-09 0.000000000000e+00
9.000000000000e+02 0.000000000000e+00 1.150000000000e+01 1.103123116216e-08 -1.678530432769e-09 0.000000000000e+00
8.990000000000e+02 0.000000000000e+00 1.250000000000e+01 2.203713289783e-08 -1.700601263311e-09 0.000000000000e+00
9.000000000000e+02 0.000000000000e+00 1.250000000000e+01 2.205976770559e-08 -1.695495153715e-09 0.000000000000e+00
8.990000000000e+02 0.000000000000e+00 1.350000000000e+01 7.784542341564e-07 -2.114378559852e-09 0.000000000000e+00
9.000000000000e+02 0.000000000000e+00 1.350000000000e+01 7.792575425535e-07 -2.108421330852e-09 0.000000000000e+00
8.990000000000e+02 0.000000000000e+00 1.450000000000e+01 9.966573240449e-07 -3.032088702550e-09 0.000000000000e+00
9.000000000000e+02 0.000000000000e+00 1.450000000000e+01 9.976859831409e-07 -3.024247744029e-09 0.000000000000e+00
8.990000000000e+02 0.000000000000e+00 1.550000000000e+01 1.344504327230e-06 -4.242657014575e-09 0.000000000000e+00
9.000000000000e+02 0.000000000000e+00 1.550000000000e+01 1.345892256272e-06 -4.232337251188e-09 0.000000000000e+00
8.990000000000e+02 0.000000000000e+00 1.650000000000e+01 4.487450023646e-08 -4.961202879192e-09 0.000000000000e+00
9.000000000000e+02 0.000000000000e+00 1.650000000000e+01 4.492086409782e-08 -4.949415268929e-09 0.000000000000e+00
8.990000000000e+02 0.000000000000e+00 1.750000000000e+01 3.945613673339e-09 -4.986609364143e-09 0.000000000000e+00
9.000000000000e+02 0.000000000000e+00 1.750000000000e+01 3.949745456999e-09 -4.974774276858e-09 0.000000000000e+00
8.990000000000e+02 0.000000000000e+00 1.850000000000e+01 2.113305676888e-08 -5.000561099977e-09 0.000000000000e+00
9.000000000000e+02 0.000000000000e+00 1.850000000000e+01 2.115659374907e-08 -4.988725648326e-09 0.000000000000e+00
8.990000000000e+02 0.000000000000e+00 1.950000000000e+01 1.845814191057e-10 -5.012563578016e-09 0.000000000000e+00
9.000000000000e+02 0.000000000000e+00 1.950000000000e+01 1.848218049814e-10 -5.000731625998e-09 0.000000000000e+00
8.990000000000e+02 0.000000000000e+00 2.050000000000e+01 6.120969124817e-08 -5.091545363461e-09 0.000000000000e+00
9.000000000000e+02 0.000000000000e+00 2.050000000000e+01 6.136931913867e-08 -5.080912514636e-09 0.000000000000e+00
8.990000000000e+02 0.000000000000e+00 2.150000000000e+01 7.270899043506e-08 -5.264072892455e-09 0.000000000000e+00
9.000000000000e+02 0.000000000000e+00 2.150000000000e+01 7.289888551725e-08 -5.256062413988e-09 0.000000000000e+00
8.990000000000e+02 0.000000000000e+00 2.250000000000e+01 1.804209518636e-08 -5.381100866837e-09 0.000000000000e+00
9.000000000000e+02 0.000000000000e+00 2.250000000000e+01 1.808927298494e-08 -5.374870542302e-09 0.000000000000e+00
8.990000000000e+02 0.000000000000e+00 2.350000000000e+01 1.578588245549e-08 -5.424859279731e-09 0.000000000000e+00
9.000000000000e+02 0.000000000000e+00 2.350000000000e+01 1.582728734535e-08 -5.419296250895e-09 0.000000000000e+00
8.990000000000e+02 0.000000000000e+00 2.450000000000e+01 8.625018450703e-10 -5.446463959144e-09 0.000000000000e+00
9.000000000000e+02 0.000000000000e+00 2.450000000000e+01 8.647841162586e-10 -5.441231244912e-09 0.000000000000e+00
8.990000000000e+02 0.000000000000e+00 2.550000000000e+01 3.122632239026e-09 -5.451912883546e-09 0.000000000000e+00
9.000000000000e+02 0.000000000000e+00 2.550000000000e+01 3.131297691508e-09 -5.446767013147e-09 0.000000000000e+00
8.990000000000e+02 0.000000000000e+00 2.650000000000e+01 2.773503848198e-08 -5.494641167292e-09 0.000000000000e+00
9.000000000000e+02 0.000000000000e+00 2.650000000000e+01 2.781295371472e-08 -5.490183338018e-09 0.000000000000e+00
8.990000000000e+02 0.000000000000e+00 2.750000000000e+01 3.397704587526e-09 -5.537805839398e-09 0.000000000000e+00
9.000000000000e+02 0.000000000000e+00 2.750000000000e+01 3.407270675111e-09 -5.534043764015e-09 0.000000000000e+00
8.990000000000e+02 0.000000000000e+00 2.850000000000e+01 6.528468192506e-08 -5.633883146978e-09 0.000000000000e+00
9.000000000000e+02 0.000000000000e+00 2.850000000000e+01 6.546997616302e-08 -5.631680153133e-09 0.000000000000e+00
8.990000000000e+02 0.000000000000e+00 2.950000000000e+01 1.585762511433e-08 -5.747418198506e-09 0.000000000000e+00
9.000000000000e+02 0.000000000000e+00 2.950000000000e+01 1.590264492811e-08 -5.747057956678e-09 0.000000000000e+00
