 TITLE = "Profiles along polylines"
 VARIABLES = "DIST" "HEAD" "VELOCITY_X1" "VELOCITY_Y1" "VELOCITY_Z1" 
 ZONE T="TIME=0.000000000000e+00"
0.000000000000e+00 3.000000000000e+01 0.000000000000e+00 0.000000000000e+00 0.000000000000e+00 
1.000000000000e+00 3.000000000000e+01 0.000000000000e+00 0.000000000000e+00 0.000000000000e+00 
2.000000000000e+00 3.000000000000e+01 0.000000000000e+00 0.000000000000e+00 0.000000000000e+00 
3.000000000000e+00 3.000000000000e+01 0.000000000000e+00 0.000000000000e+00 0.000000000000e+00 
4.000000000000e+00 3.000000000000e+01 0.000000000000e+00 0.000000000000e+00 0.000000000000e+00 
5.000000000000e+00 3.000000000000e+01 0.000000000000e+00 0.000000000000e+00 0.000000000000e+00 
6.000000000000e+00 3.000000000000e+01 0.000000000000e+00 0.000000000000e+00 0.000000000000e+00 
7.000000000000e+00 3.000000000000e+01 0.000000000000e+00 0.000000000000e+00 0.000000000000e+00 
8.000000000000e+00 3.000000000000e+01 0.000000000000e+00 0.000000000000e+00 0.000000000000e+00 
9.000000000000e+00 3.000000000000e+01 0.000000000000e+00 0.000000000000e+00 0.000000000000e+00 
1.000000000000e+01 3.000000000000e+01 0.000000000000e+00 0.000000000000e+00 0.000000000000e+00 
1.100000000000e+01 3.000000000000e+01 0.000000000000e+00 0.000000000000e+00 0.000000000000e+00 
1.200000000000e+01 3.000000000000e+01 0.000000000000e+00 0.000000000000e+00 0.000000000000e+00 
1.300000000000e+01 3.000000000000e+01 0.000000000000e+00 0.000000000000e+00 0.000000000000e+00 
1.400000000000e+01 3.000000000000e+01 0.000000000000e+00 0.000000000000e+00 0.000000000000e+00 
1.500000000000e+01 3.000000000000e+01 0.000000000000e+00 0.000000000000e+00 0.000000000000e+00 
1.600000000000e+01 3.000000000000e+01 0.000000000000e+00 0.000000000000e+00 0.000000000000e+00 
1.700000000000e+01 3.000000000000e+01 0.000000000000e+00 0.000000000000e+00 0.000000000000e+00 
1.800000000000e+01 3.000000000000e+01 0.000000000000e+00 0.000000000000e+00 0.000000000000e+00 
1.900000000000e+01 3.000000000000e+01 0.000000000000e+00 0.000000000000e+00 0.000000000000e+00 
2.000000000000e+01 3.000000000000e+01 0.000000000000e+00 0.000000000000e+00 0.000000000000e+00 
2.100000000000e+01 3.000000000000e+01 0.000000000000e+00 0.000000000000e+00 0.000000000000e+00 
2.200000000000e+01 3.000000000000e+01 0.000000000000e+00 0.000000000000e+00 0.000000000000e+00 
2.300000000000e+01 3.000000000000e+01 0.000000000000e+00 0.000000000000e+00 0.000000000000e+00 
2.400000000000e+01 3.000000000000e+01 0.000000000000e+00 0.000000000000e+00 0.000000000000e+00 
2.500000000000e+01 3.000000000000e+01 0.000000000000e+00 0.000000000000e+00 0.000000000000e+00 
2.600000000000e+01 3.000000000000e+01 0.000000000000e+00 0.000000000000e+00 0.000000000000e+00 
2.700000000000e+01 3.000000000000e+01 0.000000000000e+00 0.000000000000e+00 0.000000000000e+00 
2.800000000000e+01 3.000000000000e+01 0.000000000000e+00 0.000000000000e+00 0.000000000000e+00 
2.900000000000e+01 3.000000000000e+01 0.000000000000e+00 0.000000000000e+00 0.000000000000e+00 
3.000000000000e+01 3.000000000000e+01 0.000000000000e+00 0.000000000000e+00 0.000000000000e+00 
 TITLE = "Profiles along polylines"
 VARIABLES = "DIST" "HEAD" "VELOCITY_X1" "VELOCITY_Y1" "VELOCITY_Z1" 
 ZONE T="TIME=1.797693134862e+308"
0.000000000000e+00 3.023936770670e+01 3.822412028289e-08 -2.541318330429e-11 0.000000000000e+00 
1.000000000000e+00 3.023936825789e+01 1.967461206263e-08 -3.849385839956e-11 0.000000000000e+00 
2.000000000000e+00 3.023940626126e+01 1.201743184412e-09 -5.237355944431e-11 0.000000000000e+00 
3.000000000000e+00 3.023944074448e+01 2.369886834195e-07 -2.107519799778e-10 0.000000000000e+00 
4.000000000000e+00 3.023944139048e+01 2.377069230154e-07 -5.263892332900e-10 0.000000000000e+00 
5.000000000000e+00 3.023965040551e+01 1.344910649260e-07 -7.739019137651e-10 0.000000000000e+00 
6.000000000000e+00 3.023965309371e+01 3.350139617639e-07 -1.086187953581e-09 0.000000000000e+00 
7.000000000000e+00 3.023965578160e+01 2.117679372173e-07 -1.449875403291e-09 0.000000000000e+00 
8.000000000000e+00 3.023972247243e+01 4.682958434107e-08 -1.621882868955e-09 0.000000000000e+00 
9.000000000000e+00 3.023974102156e+01 9.733304798349e-08 -1.717782216852e-09 0.000000000000e+00 
1.000000000000e+01 3.023975325720e+01 6.503647022015e-08 -1.825794898014e-09 0.000000000000e+00 
1.100000000000e+01 3.023992004557e+01 9.256932445946e-09 -1.875218914626e-09 0.000000000000e+00 
1.200000000000e+01 3.024008916819e+01 1.382948517875e-08 -1.890582487255e-09 0.000000000000e+00 
1.300000000000e+01 3.024017460517e+01 3.347729698929e-07 -2.122618648187e-09 0.000000000000e+00 
1.400000000000e+01 3.024017759178e+01 7.423610020319e-07 -2.839585227444e-09 0.000000000000e+00 
1.500000000000e+01 3.024018090745e+01 9.790786587583e-07 -3.985422061708e-09 0.000000000000e+00 
1.600000000000e+01 3.024018432629e+01 5.810386126457e-07 -5.023882269470e-09 0.000000000000e+00 
1.700000000000e+01 3.024030385082e+01 2.041507389039e-08 -5.424230842903e-09 0.000000000000e+00 
1.800000000000e+01 3.024167084210e+01 1.045856070196e-08 -5.444794111463e-09 0.000000000000e+00 
1.900000000000e+01 3.024192741374e+01 8.885841807343e-09 -5.457692482916e-09 0.000000000000e+00 
2.000000000000e+01 3.027159491689e+01 2.407865941833e-08 -5.480181862604e-09 0.000000000000e+00 
2.100000000000e+01 3.027169002987e+01 5.250909894414e-08 -5.532869725812e-09 0.000000000000e+00 
2.200000000000e+01 3.027177116615e+01 3.557966715106e-08 -5.593472827140e-09 0.000000000000e+00 
2.300000000000e+01 3.027210106186e+01 1.325907005031e-08 -5.627075481235e-09 0.000000000000e+00 
2.400000000000e+01 3.027247946347e+01 6.523959384564e-09 -5.640689319013e-09 0.000000000000e+00 
2.500000000000e+01 3.027942306477e+01 1.553693137056e-09 -5.646251923496e-09 0.000000000000e+00 
2.600000000000e+01 3.028135234009e+01 1.200076119070e-08 -5.655615782488e-09 0.000000000000e+00 
2.700000000000e+01 3.028157051269e+01 1.210563475103e-08 -5.672271605006e-09 0.000000000000e+00 
2.800000000000e+01 3.028335716483e+01 2.667599403881e-08 -5.699078236788e-09 0.000000000000e+00 
2.900000000000e+01 3.028345084592e+01 3.151368098915e-08 -5.739307527074e-09 0.000000000000e+00 
3.000000000000e+01 3.028383947604e+01 1.231711194009e-08 -5.761094705352e-09 0.000000000000e+00 
