 TITLE = "Profiles along polylines"
 VARIABLES = "DIST" "HEAD" "VELOCITY_X1" "VELOCITY_Y1" "VELOCITY_Z1" 
 ZONE T="TIME=0.000000000000e+00"
0.000000000000e+00 3.000000000000e+01 0.000000000000e+00 0.000000000000e+00 0.000000000000e+00 
1.000000000000e+00 3.000000000000e+01 0.000000000000e+00 0.000000000000e+00 0.000000000000e+00 
2.000000000000e+00 3.000000000000e+01 0.000000000000e+00 0.000000000000e+00 0.000000000000e+00 
3.000000000000e+00 3.000000000000e+01 0.000000000000e+00 0.000000000000e+00 0.000000000000e+00 
4.000000000000e+00 3.000000000000e+01 0.000000000000e+00 0.000000000000e+00 0.000000000000e+00 
5.000000000000e+00 3.000000000000e+01 0.000000000000e+00 0.000000000000e+00 0.000000000000e+00 
6.000000000000e+00 3.000000000000e+01 0.000000000000e+00 0.000000000000e+00 0.000000000000e+00 
7.000000000000e+00 3.000000000000e+01 0.000000000000e+00 0.000000000000e+00 0.000000000000e+00 
8.000000000000e+00 3.000000000000e+01 0.000000000000e+00 0.000000000000e+00 0.000000000000e+00 
9.000000000000e+00 3.000000000000e+01 0.000000000000e+00 0.000000000000e+00 0.000000000000e+00 
1.000000000000e+01 3.000000000000e+01 0.000000000000e+00 0.000000000000e+00 0.000000000000e+00 
1.100000000000e+01 3.000000000000e+01 0.000000000000e+00 0.000000000000e+00 0.000000000000e+00 
1.200000000000e+01 3.000000000000e+01 0.000000000000e+00 0.000000000000e+00 0.000000000000e+00 
1.300000000000e+01 3.000000000000e+01 0.000000000000e+00 0.000000000000e+00 0.000000000000e+00 
1.400000000000e+01 3.000000000000e+01 0.000000000000e+00 0.000000000000e+00 0.000000000000e+00 
1.500000000000e+01 3.000000000000e+01 0.000000000000e+00 0.000000000000e+00 0.000000000000e+00 
1.600000000000e+01 3.000000000000e+01 0.000000000000e+00 0.000000000000e+00 0.000000000000e+00 
1.700000000000e+01 3.000000000000e+01 0.000000000000e+00 0.000000000000e+00 0.000000000000e+00 
1.800000000000e+01 3.000000000000e+01 0.000000000000e+00 0.000000000000e+00 0.000000000000e+00 
1.900000000000e+01 3.000000000000e+01 0.000000000000e+00 0.000000000000e+00 0.000000000000e+00 
2.000000000000e+01 3.000000000000e+01 0.000000000000e+00 0.000000000000e+00 0.000000000000e+00 
2.100000000000e+01 3.000000000000e+01 0.000000000000e+00 0.000000000000e+00 0.000000000000e+00 
2.200000000000e+01 3.000000000000e+01 0.000000000000e+00 0.000000000000e+00 0.000000000000e+00 
2.300000000000e+01 3.000000000000e+01 0.000000000000e+00 0.000000000000e+00 0.000000000000e+00 
2.400000000000e+01 3.000000000000e+01 0.000000000000e+00 0.000000000000e+00 0.000000000000e+00 
2.500000000000e+01 3.000000000000e+01 0.000000000000e+00 0.000000000000e+00 0.000000000000e+00 
2.600000000000e+01 3.000000000000e+01 0.000000000000e+00 0.000000000000e+00 0.000000000000e+00 
2.700000000000e+01 3.000000000000e+01 0.000000000000e+00 0.000000000000e+00 0.000000000000e+00 
2.800000000000e+01 3.000000000000e+01 0.000000000000e+00 0.000000000000e+00 0.000000000000e+00 
2.900000000000e+01 3.000000000000e+01 0.000000000000e+00 0.000000000000e+00 0.000000000000e+00 
3.000000000000e+01 3.000000000000e+01 0.000000000000e+00 0.000000000000e+00 0.000000000000e+00 
 TITLE = "Profiles along polylines"
 VARIABLES = "DIST" "HEAD" "VELOCITY_X1" "VELOCITY_Y1" "VELOCITY_Z1" 
 ZONE T="TIME=1.797693134862e+308"
0.000000000000e+00 3.051575437005e+01 1.274355612145e-08 -2.548615820069e-11 0.000000000000e+00 
1.000000000000e+00 3.051575492282e+01 6.559327178819e-09 -3.860475503569e-11 0.000000000000e+00 
2.000000000000e+00 3.051579303585e+01 4.006483270291e-10 -5.252463077047e-11 0.000000000000e+00 
3.000000000000e+00 3.051582761850e+01 7.900925362181e-08 -2.113384570838e-10 0.000000000000e+00 
4.000000000000e+00 3.051582826629e+01 7.924870204724e-08 -5.278477813872e-10 0.000000000000e+00 
5.000000000000e+00 3.051603786076e+01 4.483695329727e-08 -7.760151277266e-10 0.000000000000e+00 
6.000000000000e+00 3.051604055622e+01 1.116877322716e-07 -1.089056507145e-09 0.000000000000e+00 
7.000000000000e+00 3.051604325110e+01 7.059967149521e-08 -1.453625868989e-09 0.000000000000e+00 
8.000000000000e+00 3.051611011352e+01 1.561207051098e-08 -1.626047531668e-09 0.000000000000e+00 
9.000000000000e+00 3.051612871019e+01 3.244889372654e-08 -1.722166846069e-09 0.000000000000e+00 
1.000000000000e+01 3.051614097695e+01 2.168183935532e-08 -1.830426334996e-09 0.000000000000e+00 
1.100000000000e+01 3.051630818742e+01 3.086033712070e-09 -1.879961523319e-09 0.000000000000e+00 
1.200000000000e+01 3.051647773749e+01 4.610350313401e-09 -1.895353848295e-09 0.000000000000e+00 
1.300000000000e+01 3.051656338977e+01 1.116028918016e-07 -2.127771837074e-09 0.000000000000e+00 
1.400000000000e+01 3.051656638341e+01 2.474800069581e-07 -2.845919819767e-09 0.000000000000e+00 
1.500000000000e+01 3.051656970620e+01 3.263942208698e-07 -3.993644793532e-09 0.000000000000e+00 
1.600000000000e+01 3.051657313189e+01 1.937000710153e-07 -5.033815808989e-09 0.000000000000e+00 
1.700000000000e+01 3.051669288996e+01 6.805697599989e-09 -5.434823374299e-09 0.000000000000e+00 
1.800000000000e+01 3.051806254919e+01 3.486247946038e-09 -5.455406720153e-09 0.000000000000e+00 
1.900000000000e+01 3.051831962027e+01 2.961954018330e-09 -5.468302807700e-09 0.000000000000e+00 
2.000000000000e+01 3.054804472727e+01 8.012161567493e-09 -5.490250346793e-09 0.000000000000e+00 
2.100000000000e+01 3.054814000512e+01 1.747228805462e-08 -5.541217652021e-09 0.000000000000e+00 
2.200000000000e+01 3.054822124582e+01 1.183901895390e-08 -5.599838806447e-09 0.000000000000e+00 
2.300000000000e+01 3.054855146830e+01 4.411868698867e-09 -5.632339809859e-09 0.000000000000e+00 
2.400000000000e+01 3.054893020318e+01 2.170782719598e-09 -5.645504725102e-09 0.000000000000e+00 
2.500000000000e+01 3.055587954468e+01 5.168856296675e-10 -5.650879907300e-09 0.000000000000e+00 
2.600000000000e+01 3.055781038777e+01 3.992245851707e-09 -5.659897840002e-09 0.000000000000e+00 
2.700000000000e+01 3.055802871349e+01 4.027114957044e-09 -5.675936088635e-09 0.000000000000e+00 
2.800000000000e+01 3.055981642052e+01 8.873871303246e-09 -5.701737226502e-09 0.000000000000e+00 
2.900000000000e+01 3.055991013379e+01 1.048313603378e-08 -5.740450069451e-09 0.000000000000e+00 
3.000000000000e+01 3.056029878558e+01 4.097327572287e-09 -5.761415823506e-09 0.000000000000e+00 
