 TITLE = "Profiles along polylines"
 VARIABLES = "DIST" "HEAD" "VELOCITY_X1" "VELOCITY_Y1" "VELOCITY_Z1" 
 ZONE T="TIME=0.000000000000e+00"
0.000000000000e+00 3.000000000000e+01 0.000000000000e+00 0.000000000000e+00 0.000000000000e+00 
1.000000000000e+00 3.000000000000e+01 0.000000000000e+00 0.000000000000e+00 0.000000000000e+00 
2.000000000000e+00 3.000000000000e+01 0.000000000000e+00 0.000000000000e+00 0.000000000000e+00 
3.000000000000e+00 3.000000000000e+01 0.000000000000e+00 0.000000000000e+00 0.000000000000e+00 
4.000000000000e+00 3.000000000000e+01 0.000000000000e+00 0.000000000000e+00 0.000000000000e+00 
5.000000000000e+00 3.000000000000e+01 0.000000000000e+00 0.000000000000e+00 0.000000000000e+00 
6.000000000000e+00 3.000000000000e+01 0.000000000000e+00 0.000000000000e+00 0.000000000000e+00 
7.000000000000e+00 3.000000000000e+01 0.000000000000e+00 0.000000000000e+00 0.000000000000e+00 
8.000000000000e+00 3.000000000000e+01 0.000000000000e+00 0.000000000000e+00 0.000000000000e+00 
9.000000000000e+00 3.000000000000e+01 0.000000000000e+00 0.000000000000e+00 0.000000000000e+00 
1.000000000000e+01 3.000000000000e+01 0.000000000000e+00 0.000000000000e+00 0.000000000000e+00 
1.100000000000e+01 3.000000000000e+01 0.000000000000e+00 0.000000000000e+00 0.000000000000e+00 
1.200000000000e+01 3.000000000000e+01 0.000000000000e+00 0.000000000000e+00 0.000000000000e+00 
1.300000000000e+01 3.000000000000e+01 0.000000000000e+00 0.000000000000e+00 0.000000000000e+00 
1.400000000000e+01 3.000000000000e+01 0.000000000000e+00 0.000000000000e+00 0.000000000000e+00 
1.500000000000e+01 3.000000000000e+01 0.000000000000e+00 0.000000000000e+00 0.000000000000e+00 
1.600000000000e+01 3.000000000000e+01 0.000000000000e+00 0.000000000000e+00 0.000000000000e+00 
1.700000000000e+01 3.000000000000e+01 0.000000000000e+00 0.000000000000e+00 0.000000000000e+00 
1.800000000000e+01 3.000000000000e+01 0.000000000000e+00 0.000000000000e+00 0.000000000000e+00 
1.900000000000e+01 3.000000000000e+01 0.000000000000e+00 0.000000000000e+00 0.000000000000e+00 
2.000000000000e+01 3.000000000000e+01 0.000000000000e+00 0.000000000000e+00 0.000000000000e+00 
2.100000000000e+01 3.000000000000e+01 0.000000000000e+00 0.000000000000e+00 0.000000000000e+00 
2.200000000000e+01 3.000000000000e+01 0.000000000000e+00 0.000000000000e+00 0.000000000000e+00 
2.300000000000e+01 3.000000000000e+01 0.000000000000e+00 0.000000000000e+00 0.000000000000e+00 
2.400000000000e+01 3.000000000000e+01 0.000000000000e+00 0.000000000000e+00 0.000000000000e+00 
2.500000000000e+01 3.000000000000e+01 0.000000000000e+00 0.000000000000e+00 0.000000000000e+00 
2.600000000000e+01 3.000000000000e+01 0.000000000000e+00 0.000000000000e+00 0.000000000000e+00 
2.700000000000e+01 3.000000000000e+01 0.000000000000e+00 0.000000000000e+00 0.000000000000e+00 
2.800000000000e+01 3.000000000000e+01 0.000000000000e+00 0.000000000000e+00 0.000000000000e+00 
2.900000000000e+01 3.000000000000e+01 0.000000000000e+00 0.000000000000e+00 0.000000000000e+00 
3.000000000000e+01 3.000000000000e+01 0.000000000000e+00 0.000000000000e+00 0.000000000000e+00 
 TITLE = "Profiles along polylines"
 VARIABLES = "DIST" "HEAD" "VELOCITY_X1" "VELOCITY_Y1" "VELOCITY_Z1" 
 ZONE T="TIME=1.797693134862e+308"
0.000000000000e+00 3.041210714208e+01 2.548679636006e-08 -2.548628865865e-11 0.000000000000e+00 
1.000000000000e+00 3.041210769485e+01 1.311849176042e-08 -3.860465766257e-11 0.000000000000e+00 
2.000000000000e+00 3.041214580764e+01 8.012867265408e-10 -5.252430219277e-11 0.000000000000e+00 
3.000000000000e+00 3.041218039008e+01 1.580165502612e-07 -2.113390275184e-10 0.000000000000e+00 
4.000000000000e+00 3.041218103787e+01 1.584954410675e-07 -5.278464781933e-10 0.000000000000e+00 
5.000000000000e+00 3.041239063110e+01 8.967279878536e-08 -7.760115734508e-10 0.000000000000e+00 
6.000000000000e+00 3.041239332654e+01 2.233727049377e-07 -1.089052304018e-09 0.000000000000e+00 
7.000000000000e+00 3.041239602142e+01 1.411975985622e-07 -1.453618322543e-09 0.000000000000e+00 
8.000000000000e+00 3.041246288343e+01 3.122375572535e-08 -1.626037925061e-09 0.000000000000e+00 
9.000000000000e+00 3.041248148000e+01 6.489698688492e-08 -1.722157169666e-09 0.000000000000e+00 
1.000000000000e+01 3.041249374668e+01 4.336314385608e-08 -1.830415933190e-09 0.000000000000e+00 
1.100000000000e+01 3.041266095618e+01 6.171991479575e-09 -1.879950574108e-09 0.000000000000e+00 
1.200000000000e+01 3.041283050526e+01 9.220587439078e-09 -1.895342921352e-09 0.000000000000e+00 
1.300000000000e+01 3.041291615705e+01 2.232030468173e-07 -2.127762475456e-09 0.000000000000e+00 
1.400000000000e+01 3.041291915068e+01 4.949539449535e-07 -2.845909685827e-09 0.000000000000e+00 
1.500000000000e+01 3.041292247346e+01 6.527804375787e-07 -3.993630176638e-09 0.000000000000e+00 
1.600000000000e+01 3.041292589914e+01 3.873953919153e-07 -5.033794953303e-09 0.000000000000e+00 
1.700000000000e+01 3.041304565666e+01 1.361122854098e-08 -5.434798416113e-09 0.000000000000e+00 
1.800000000000e+01 3.041441530961e+01 6.972411908591e-09 -5.455381808877e-09 0.000000000000e+00 
1.900000000000e+01 3.041467237951e+01 5.923836899300e-09 -5.468277932294e-09 0.000000000000e+00 
2.000000000000e+01 3.044439735123e+01 1.602419914226e-08 -5.490226635910e-09 0.000000000000e+00 
2.100000000000e+01 3.044449262870e+01 3.494430609777e-08 -5.541197937961e-09 0.000000000000e+00 
2.200000000000e+01 3.044457386915e+01 2.367785511080e-08 -5.599823826174e-09 0.000000000000e+00 
2.300000000000e+01 3.044490409086e+01 8.823669495247e-09 -5.632327460848e-09 0.000000000000e+00 
2.400000000000e+01 3.044528282496e+01 4.341532137465e-09 -5.645493417241e-09 0.000000000000e+00 
2.500000000000e+01 3.045223215298e+01 1.033763779635e-09 -5.650869033196e-09 0.000000000000e+00 
2.600000000000e+01 3.045416299239e+01 7.984434887728e-09 -5.659887721558e-09 0.000000000000e+00 
2.700000000000e+01 3.045438131774e+01 8.054172719882e-09 -5.675927426341e-09 0.000000000000e+00 
2.800000000000e+01 3.045616902230e+01 1.774761808768e-08 -5.701730883145e-09 0.000000000000e+00 
2.900000000000e+01 3.045626273549e+01 2.096612524037e-08 -5.740447310293e-09 0.000000000000e+00 
3.000000000000e+01 3.045665138723e+01 8.194597833304e-09 -5.761415114139e-09 0.000000000000e+00 
