VARIABLES = "X","Y","Z",VELOCITY1_X,VELOCITY1_Y,VELOCITY1_Z
ZONE T="0.000000000000e+00s", 
4.900000000000e+01 0.000000000000e+00 5.000000000000e-01 0.000000000000e+00 0.000000000000e+00 0.000000000000e+00
5.000000000000e+01 0.000000000000e+00 5.000000000000e-01 0.000000000000e+00 0.000000000000e+00 0.000000000000e+00
4.900000000000e+01 0.000000000000e+00 1.500000000000e+00 0.000000000000e+00 0.000000000000e+00 0.000000000000e+00
5.000000000000e+01 0.000000000000e+00 1.500000000000e+00 0.000000000000e+00 0.000000000000e+00 0.000000000000e+00
4.900000000000e+01 0.000000000000e+00 2.500000000000e+00 0.000000000000e+00 0.000000000000e+00 0.000000000000e+00
5.000000000000e+01 0.000000000000e+00 2.500000000000e+00 0.000000000000e+00 0.000000000000e+00 0.000000000000e+00
4.900000000000e+01 0.000000000000e+00 3.500000000000e+00 0.000000000000e+00 0.000000000000e+00 0.000000000000e+00
5.000000000000e+01 0.000000000000e+00 3.500000000000e+00 0.000000000000e+00 0.000000000000e+00 0.000000000000e+00
4.900000000000e+01 0.000000000000e+00 4.500000000000e+00 0.000000000000e+00 0.000000000000e+00 0.000000000000e+00
5.000000000000e+01 0.000000000000e+00 4.500000000000e+00 0.000000000000e+00 0.000000000000e+00 0.000000000000e+00
4.900000000000e+01 0.000000000000e+00 5.500000000000e+00 0.000000000000e+00 0.000000000000e+00 0.000000000000e+00
5.000000000000e+01 0.000000000000e+00 5.500000000000e+00 0.000000000000e+00 0.000000000000e+00 0.000000000000e+00
4.900000000000e+01 0.000000000000e+00 6.500000000000e+00 0.000000000000e+00 0.000000000000e+00 0.000000000000e+00
5.000000000000e+01 0.000000000000e+00 6.500000000000e+00 0.000000000000e+00 0.000000000000e+00 0.000000000000e+00
4.900000000000e+01 0.000000000000e+00 7.500000000000e+00 0.000000000000e+00 0.000000000000e+00 0.000000000000e+00
5.000000000000e+01 0.000000000000e+00 7.500000000000e+00 0.000000000000e+00 0.000000000000e+00 0.000000000000e+00
4.900000000000e+01 0.000000000000e+00 8.500000000000e+00 0.000000000000e+00 0.000000000000e+00 0.000000000000e+00
5.000000000000e+01 0.000000000000e+00 8.500000000000e+00 0.000000000000e+00 0.000000000000e+00 0.000000000000e+00
4.900000000000e+01 0.000000000000e+00 9.500000000000e+00 0.000000000000e+00 0.000000000000e+00 0.000000000000e+00
5.000000000000e+01 0.000000000000e+00 9.500000000000e+00 0.000000000000e+00 0.000000000000e+00 0.000000000000e+00
4.900000000000e+01 0.000000000000e+00 1.050000000000e+01 0.000000000000e+00 0.000000000000e+00 0.000000000000e+00
5.000000000000e+01 0.000000000000e+00 1.050000000000e+01 0.000000000000e+00 0.000000000000e+00 0.000000000000e+00
4.900000000000e+01 0.000000000000e+00 1.150000000000e+01 0.000000000000e+00 0.000000000000e+00 0.000000000000e+00
5.000000000000e+01 0.000000000000e+00 1.150000000000e+01 0.000000000000e+00 0.000000000000e+00 0.000000000000e+00
4.900000000000e+01 0.000000000000e+00 1.250000000000e+01 0.000000000000e+00 0.000000000000e+00 0.000000000000e+00
5.000000000000e+01 0.000000000000e+00 1.250000000000e+01 0.000000000000e+00 0.000000000000e+00 0.000000000000e+00
4.900000000000e+01 0.000000000000e+00 1.350000000000e+01 0.000000000000e+00 0.000000000000e+00 0.000000000000e+00
5.000000000000e+01 0.000000000000e+00 1.350000000000e+01 0.000000000000e+00 0.000000000000e+00 0.000000000000e+00
4.900000000000e+01 0.000000000000e+00 1.450000000000e+01 0.000000000000e+00 0.000000000000e+00 0.000000000000e+00
5.000000000000e+01 0.000000000000e+00 1.450000000000e+01 0.000000000000e+00 0.000000000000e+00 0.000000000000e+00
4.900000000000e+01 0.000000000000e+00 1.550000000000e+01 0.000000000000e+00 0.000000000000e+00 0.000000000000e+00
5.000000000000e+01 0.000000000000e+00 1.550000000000e+01 0.000000000000e+00 0.000000000000e+00 0.000000000000e+00
4.900000000000e+01 0.000000000000e+00 1.650000000000e+01 0.000000000000e+00 0.000000000000e+00 0.000000000000e+00
5.000000000000e+01 0.000000000000e+00 1.650000000000e+01 0.000000000000e+00 0.000000000000e+00 0.000000000000e+00
4.900000000000e+01 0.000000000000e+00 1.750000000000e+01 0.000000000000e+00 0.000000000000e+00 0.000000000000e+00
5.000000000000e+01 0.000000000000e+00 1.750000000000e+01 0.000000000000e+00 0.000000000000e+00 0.000000000000e+00
4.900000000000e+01 0.000000000000e+00 1.850000000000e+01 0.000000000000e+00 0.000000000000e+00 0.000000000000e+00
5.000000000000e+01 0.000000000000e+00 1.850000000000e+01 0.000000000000e+00 0.000000000000e+00 0.000000000000e+00
4.900000000000e+01 0.000000000000e+00 1.950000000000e+01 0.000000000000e+00 0.000000000000e+00 0.000000000000e+00
5.000000000000e+01 0.000000000000e+00 1.950000000000e+01 0.000000000000e+00 0.000000000000e+00 0.000000000000e+00
4.900000000000e+01 0.000000000000e+00 2.050000000000e+01 0.000000000000e+00 0.000000000000e+00 0.000000000000e+00
5.000000000000e+01 0.000000000000e+00 2.050000000000e+01 0.000000000000e+00 0.000000000000e+00 0.000000000000e+00
4.900000000000e+01 0.000000000000e+00 2.150000000000e+01 0.000000000000e+00 0.000000000000e+00 0.000000000000e+00
5.000000000000e+01 0.000000000000e+00 2.150000000000e+01 0.000000000000e+00 0.000000000000e+00 0.000000000000e+00
4.900000000000e+01 0.000000000000e+00 2.250000000000e+01 0.000000000000e+00 0.000000000000e+00 0.000000000000e+00
5.000000000000e+01 0.000000000000e+00 2.250000000000e+01 0.000000000000e+00 0.000000000000e+00 0.000000000000e+00
4.900000000000e+01 0.000000000000e+00 2.350000000000e+01 0.000000000000e+00 0.000000000000e+00 0.000000000000e+00
5.000000000000e+01 0.000000000000e+00 2.350000000000e+01 0.000000000000e+00 0.000000000000e+00 0.000000000000e+00
4.900000000000e+01 0.000000000000e+00 2.450000000000e+01 0.000000000000e+00 0.000000000000e+00 0.000000000000e+00
5.000000000000e+01 0.000000000000e+00 2.450000000000e+01 0.000000000000e+00 0.000000000000e+00 0.000000000000e+00
4.900000000000e+01 0.000000000000e+00 2.550000000000e+01 0.000000000000e+00 0.000000000000e+00 0.000000000000e+00
5.000000000000e+01 0.000000000000e+00 2.550000000000e+01 0.000000000000e+00 0.000000000000e+00 0.000000000000e+00
4.900000000000e+01 0.000000000000e+00 2.650000000000e+01 0.000000000000e+00 0.000000000000e+00 0.000000000000e+00
5.000000000000e+01 0.000000000000e+00 2.650000000000e+01 0.000000000000e+00 0.000000000000e+00 0.000000000000e+00
4.900000000000e+01 0.000000000000e+00 2.750000000000e+01 0.000000000000e+00 0.000000000000e+00 0.000000000000e+00
5.000000000000e+01 0.000000000000e+00 2.750000000000e+01 0.000000000000e+00 0.000000000000e+00 0.000000000000e+00
4.900000000000e+01 0.000000000000e+00 2.850000000000e+01 0.000000000000e+00 0.000000000000e+00 0.000000000000e+00
5.000000000000e+01 0.000000000000e+00 2.850000000000e+01 0.000000000000e+00 0.000000000000e+00 0.000000000000e+00
4.900000000000e+01 0.000000000000e+00 2.950000000000e+01 0.000000000000e+00 0.000000000000e+00 0.000000000000e+00
5.000000000000e+01 0.000000000000e+00 2.950000000000e+01 0.000000000000e+00 0.000000000000e+00 0.000000000000e+00
VARIABLES = "X","Y","Z",VELOCITY1_X,VELOCITY1_Y,VELOCITY1_Z
ZONE T="1.797693134862e+308s", 
4.900000000000e+01 0.000000000000e+00 5.000000000000e-01 2.523074094061e-09 -2.548630573154e-11 0.000000000000e+00
5.000000000000e+01 0.000000000000e+00 5.000000000000e-01 2.574046391823e-09 -2.548632571537e-11 0.000000000000e+00
4.900000000000e+01 0.000000000000e+00 1.500000000000e+00 7.426503139457e-11 -5.172340210302e-11 0.000000000000e+00
5.000000000000e+01 0.000000000000e+00 1.500000000000e+00 7.576536745294e-11 -5.172340297087e-11 0.000000000000e+00
4.900000000000e+01 0.000000000000e+00 2.500000000000e+00 8.438226990800e-11 -5.332595840182e-11 0.000000000000e+00
5.000000000000e+01 0.000000000000e+00 2.500000000000e+00 8.608699894276e-11 -5.332595955225e-11 0.000000000000e+00
4.900000000000e+01 0.000000000000e+00 3.500000000000e+00 3.120142059206e-08 -3.693528790554e-10 0.000000000000e+00
5.000000000000e+01 0.000000000000e+00 3.500000000000e+00 3.183176585742e-08 -3.693531241584e-10 0.000000000000e+00
4.900000000000e+01 0.000000000000e+00 4.500000000000e+00 1.791981574747e-10 -6.863451574486e-10 0.000000000000e+00
5.000000000000e+01 0.000000000000e+00 4.500000000000e+00 1.828183999286e-10 -6.863451841366e-10 0.000000000000e+00
4.900000000000e+01 0.000000000000e+00 5.500000000000e+00 1.757517568193e-08 -8.656872513764e-10 0.000000000000e+00
5.000000000000e+01 0.000000000000e+00 5.500000000000e+00 1.793023734671e-08 -8.656874293737e-10 0.000000000000e+00
4.900000000000e+01 0.000000000000e+00 6.500000000000e+00 2.665052630306e-08 -1.312429681474e-09 0.000000000000e+00
5.000000000000e+01 0.000000000000e+00 6.500000000000e+00 2.718893233416e-08 -1.312429883907e-09 0.000000000000e+00
4.900000000000e+01 0.000000000000e+00 7.500000000000e+00 1.305274677895e-09 -1.594825488202e-09 0.000000000000e+00
5.000000000000e+01 0.000000000000e+00 7.500000000000e+00 1.331644430337e-09 -1.594825469898e-09 0.000000000000e+00
4.900000000000e+01 0.000000000000e+00 8.500000000000e+00 4.876736216203e-09 -1.657271926591e-09 0.000000000000e+00
5.000000000000e+01 0.000000000000e+00 8.500000000000e+00 4.975258258808e-09 -1.657271945904e-09 0.000000000000e+00
4.900000000000e+01 0.000000000000e+00 9.500000000000e+00 7.972258681769e-09 -1.787064598816e-09 0.000000000000e+00
5.000000000000e+01 0.000000000000e+00 9.500000000000e+00 8.133317886649e-09 -1.787064644880e-09 0.000000000000e+00
4.900000000000e+01 0.000000000000e+00 1.050000000000e+01 6.132371630139e-10 -1.873790898834e-09 0.000000000000e+00
5.000000000000e+01 0.000000000000e+00 1.050000000000e+01 6.256260592002e-10 -1.873790910300e-09 0.000000000000e+00
4.900000000000e+01 0.000000000000e+00 1.150000000000e+01 6.087592074183e-10 -1.886134714878e-09 0.000000000000e+00
5.000000000000e+01 0.000000000000e+00 1.150000000000e+01 6.210576387167e-10 -1.886134730292e-09 0.000000000000e+00
4.900000000000e+01 0.000000000000e+00 1.250000000000e+01 1.216830426800e-09 -1.904575624467e-09 0.000000000000e+00
5.000000000000e+01 0.000000000000e+00 1.250000000000e+01 1.241413390438e-09 -1.904575646823e-09 0.000000000000e+00
4.900000000000e+01 0.000000000000e+00 1.350000000000e+01 4.297527265159e-08 -2.350973124102e-09 0.000000000000e+00
5.000000000000e+01 0.000000000000e+00 1.350000000000e+01 4.384347873178e-08 -2.350973500756e-09 0.000000000000e+00
4.900000000000e+01 0.000000000000e+00 1.450000000000e+01 5.502095063486e-08 -3.340874984859e-09 0.000000000000e+00
5.000000000000e+01 0.000000000000e+00 1.450000000000e+01 5.613250903589e-08 -3.340875259907e-09 0.000000000000e+00
4.900000000000e+01 0.000000000000e+00 1.550000000000e+01 7.422343199804e-08 -4.646425169453e-09 0.000000000000e+00
5.000000000000e+01 0.000000000000e+00 1.550000000000e+01 7.572292770180e-08 -4.646425487488e-09 0.000000000000e+00
4.900000000000e+01 0.000000000000e+00 1.650000000000e+01 2.477209183777e-09 -5.421215075816e-09 0.000000000000e+00
5.000000000000e+01 0.000000000000e+00 1.650000000000e+01 2.527254894050e-09 -5.421215065684e-09 0.000000000000e+00
4.900000000000e+01 0.000000000000e+00 1.750000000000e+01 2.176858911534e-10 -5.448437231425e-09 0.000000000000e+00
5.000000000000e+01 0.000000000000e+00 1.750000000000e+01 2.220836808617e-10 -5.448437223892e-09 0.000000000000e+00
4.900000000000e+01 0.000000000000e+00 1.850000000000e+01 1.162785747777e-09 -5.462381772535e-09 0.000000000000e+00
5.000000000000e+01 0.000000000000e+00 1.850000000000e+01 1.186276877568e-09 -5.462381775026e-09 0.000000000000e+00
4.900000000000e+01 0.000000000000e+00 1.950000000000e+01 1.007790931194e-11 -5.474229424942e-09 0.000000000000e+00
5.000000000000e+01 0.000000000000e+00 1.950000000000e+01 1.028150788130e-11 -5.474229423211e-09 0.000000000000e+00
4.900000000000e+01 0.000000000000e+00 2.050000000000e+01 3.162547180017e-09 -5.506276898568e-09 0.000000000000e+00
5.000000000000e+01 0.000000000000e+00 2.050000000000e+01 3.226438516263e-09 -5.506276921563e-09 0.000000000000e+00
4.900000000000e+01 0.000000000000e+00 2.150000000000e+01 3.756062562662e-09 -5.576163509756e-09 0.000000000000e+00
5.000000000000e+01 0.000000000000e+00 2.150000000000e+01 3.831944399447e-09 -5.576163515609e-09 0.000000000000e+00
4.900000000000e+01 0.000000000000e+00 2.250000000000e+01 9.319068193580e-10 -5.623517784314e-09 0.000000000000e+00
5.000000000000e+01 0.000000000000e+00 2.250000000000e+01 9.507336640772e-10 -5.623517775239e-09 0.000000000000e+00
4.900000000000e+01 0.000000000000e+00 2.350000000000e+01 8.150880538770e-10 -5.641164589782e-09 0.000000000000e+00
5.000000000000e+01 0.000000000000e+00 2.350000000000e+01 8.315548667336e-10 -5.641164586342e-09 0.000000000000e+00
4.900000000000e+01 0.000000000000e+00 2.450000000000e+01 4.449017712392e-11 -5.649847387338e-09 0.000000000000e+00
5.000000000000e+01 0.000000000000e+00 2.450000000000e+01 4.538898965469e-11 -5.649847386336e-09 0.000000000000e+00
4.900000000000e+01 0.000000000000e+00 2.550000000000e+01 1.601842115362e-10 -5.651914851215e-09 0.000000000000e+00
5.000000000000e+01 0.000000000000e+00 2.550000000000e+01 1.634203313738e-10 -5.651914851912e-09 0.000000000000e+00
4.900000000000e+01 0.000000000000e+00 2.650000000000e+01 1.420649964504e-09 -5.667883231786e-09 0.000000000000e+00
5.000000000000e+01 0.000000000000e+00 2.650000000000e+01 1.449350631207e-09 -5.667883239718e-09 0.000000000000e+00
4.900000000000e+01 0.000000000000e+00 2.750000000000e+01 1.739915412631e-10 -5.683991039466e-09 0.000000000000e+00
5.000000000000e+01 0.000000000000e+00 2.750000000000e+01 1.775066034052e-10 -5.683991040494e-09 0.000000000000e+00
4.900000000000e+01 0.000000000000e+00 2.850000000000e+01 3.339849855661e-09 -5.719485184105e-09 0.000000000000e+00
5.000000000000e+01 0.000000000000e+00 2.850000000000e+01 3.407323155993e-09 -5.719485210558e-09 0.000000000000e+00
4.900000000000e+01 0.000000000000e+00 2.950000000000e+01 8.112220007916e-10 -5.761416018969e-09 0.000000000000e+00
5.000000000000e+01 0.000000000000e+00 2.950000000000e+01 8.276107110763e-10 -5.761416019443e-09 0.000000000000e+00
