VARIABLES = "X","Y","Z",VELOCITY1_X,VELOCITY1_Y,VELOCITY1_Z
ZONE T="0.000000000000e+00s", 
4.990000000000e+02 0.000000000000e+00 5.000000000000e-01 0.000000000000e+00 0.000000000000e+00 0.000000000000e+00
5.000000000000e+02 0.000000000000e+00 5.000000000000e-01 0.000000000000e+00 0.000000000000e+00 0.000000000000e+00
4.990000000000e+02 0.000000000000e+00 1.500000000000e+00 0.000000000000e+00 0.000000000000e+00 0.000000000000e+00
5.000000000000e+02 0.000000000000e+00 1.500000000000e+00 0.000000000000e+00 0.000000000000e+00 0.000000000000e+00
4.990000000000e+02 0.000000000000e+00 2.500000000000e+00 0.000000000000e+00 0.000000000000e+00 0.000000000000e+00
5.000000000000e+02 0.000000000000e+00 2.500000000000e+00 0.000000000000e+00 0.000000000000e+00 0.000000000000e+00
4.990000000000e+02 0.000000000000e+00 3.500000000000e+00 0.000000000000e+00 0.000000000000e+00 0.000000000000e+00
5.000000000000e+02 0.000000000000e+00 3.500000000000e+00 0.000000000000e+00 0.000000000000e+00 0.000000000000e+00
4.990000000000e+02 0.000000000000e+00 4.500000000000e+00 0.000000000000e+00 0.000000000000e+00 0.000000000000e+00
5.000000000000e+02 0.000000000000e+00 4.500000000000e+00 0.000000000000e+00 0.000000000000e+00 0.000000000000e+00
4.990000000000e+02 0.000000000000e+00 5.500000000000e+00 0.000000000000e+00 0.000000000000e+00 0.000000000000e+00
5.000000000000e+02 0.000000000000e+00 5.500000000000e+00 0.000000000000e+00 0.000000000000e+00 0.000000000000e+00
4.990000000000e+02 0.000000000000e+00 6.500000000000e+00 0.000000000000e+00 0.000000000000e+00 0.000000000000e+00
5.000000000000e+02 0.000000000000e+00 6.500000000000e+00 0.000000000000e+00 0.000000000000e+00 0.000000000000e+00
4.990000000000e+02 0.000000000000e+00 7.500000000000e+00 0.000000000000e+00 0.000000000000e+00 0.000000000000e+00
5.000000000000e+02 0.000000000000e+00 7.500000000000e+00 0.000000000000e+00 0.000000000000e+00 0.000000000000e+00
4.990000000000e+02 0.000000000000e+00 8.500000000000e+00 0.000000000000e+00 0.000000000000e+00 0.000000000000e+00
5.000000000000e+02 0.000000000000e+00 8.500000000000e+00 0.000000000000e+00 0.000000000000e+00 0.000000000000e+00
4.990000000000e+02 0.000000000000e+00 9.500000000000e+00 0.000000000000e+00 0.000000000000e+00 0.000000000000e+00
5.000000000000e+02 0.000000000000e+00 9.500000000000e+00 0.000000000000e+00 0.000000000000e+00 0.000000000000e+00
4.990000000000e+02 0.000000000000e+00 1.050000000000e+01 0.000000000000e+00 0.000000000000e+00 0.000000000000e+00
5.000000000000e+02 0.000000000000e+00 1.050000000000e+01 0.000000000000e+00 0.000000000000e+00 0.000000000000e+00
4.990000000000e+02 0.000000000000e+00 1.150000000000e+01 0.000000000000e+00 0.000000000000e+00 0.000000000000e+00
5.000000000000e+02 0.000000000000e+00 1.150000000000e+01 0.000000000000e+00 0.000000000000e+00 0.000000000000e+00
4.990000000000e+02 0.000000000000e+00 1.250000000000e+01 0.000000000000e+00 0.000000000000e+00 0.000000000000e+00
5.000000000000e+02 0.000000000000e+00 1.250000000000e+01 0.000000000000e+00 0.000000000000e+00 0.000000000000e+00
4.990000000000e+02 0.000000000000e+00 1.350000000000e+01 0.000000000000e+00 0.000000000000e+00 0.000000000000e+00
5.000000000000e+02 0.000000000000e+00 1.350000000000e+01 0.000000000000e+00 0.000000000000e+00 0.000000000000e+00
4.990000000000e+02 0.000000000000e+00 1.450000000000e+01 0.000000000000e+00 0.000000000000e+00 0.000000000000e+00
5.000000000000e+02 0.000000000000e+00 1.450000000000e+01 0.000000000000e+00 0.000000000000e+00 0.000000000000e+00
4.990000000000e+02 0.000000000000e+00 1.550000000000e+01 0.000000000000e+00 0.000000000000e+00 0.000000000000e+00
5.000000000000e+02 0.000000000000e+00 1.550000000000e+01 0.000000000000e+00 0.000000000000e+00 0.000000000000e+00
4.990000000000e+02 0.000000000000e+00 1.650000000000e+01 0.000000000000e+00 0.000000000000e+00 0.000000000000e+00
5.000000000000e+02 0.000000000000e+00 1.650000000000e+01 0.000000000000e+00 0.000000000000e+00 0.000000000000e+00
4.990000000000e+02 0.000000000000e+00 1.750000000000e+01 0.000000000000e+00 0.000000000000e+00 0.000000000000e+00
5.000000000000e+02 0.000000000000e+00 1.750000000000e+01 0.000000000000e+00 0.000000000000e+00 0.000000000000e+00
4.990000000000e+02 0.000000000000e+00 1.850000000000e+01 0.000000000000e+00 0.000000000000e+00 0.000000000000e+00
5.000000000000e+02 0.000000000000e+00 1.850000000000e+01 0.000000000000e+00 0.000000000000e+00 0.000000000000e+00
4.990000000000e+02 0.000000000000e+00 1.950000000000e+01 0.000000000000e+00 0.000000000000e+00 0.000000000000e+00
5.000000000000e+02 0.000000000000e+00 1.950000000000e+01 0.000000000000e+00 0.000000000000e+00 0.000000000000e+00
4.990000000000e+02 0.000000000000e+00 2.050000000000e+01 0.000000000000e+00 0.000000000000e+00 0.000000000000e+00
5.000000000000e+02 0.000000000000e+00 2.050000000000e+01 0.000000000000e+00 0.000000000000e+00 0.000000000000e+00
4.990000000000e+02 0.000000000000e+00 2.150000000000e+01 0.000000000000e+00 0.000000000000e+00 0.000000000000e+00
5.000000000000e+02 0.000000000000e+00 2.150000000000e+01 0.000000000000e+00 0.000000000000e+00 0.000000000000e+00
4.990000000000e+02 0.000000000000e+00 2.250000000000e+01 0.000000000000e+00 0.000000000000e+00 0.000000000000e+00
5.000000000000e+02 0.000000000000e+00 2.250000000000e+01 0.000000000000e+00 0.000000000000e+00 0.000000000000e+00
4.990000000000e+02 0.000000000000e+00 2.350000000000e+01 0.000000000000e+00 0.000000000000e+00 0.000000000000e+00
5.000000000000e+02 0.000000000000e+00 2.350000000000e+01 0.000000000000e+00 0.000000000000e+00 0.000000000000e+00
4.990000000000e+02 0.000000000000e+00 2.450000000000e+01 0.000000000000e+00 0.000000000000e+00 0.000000000000e+00
5.000000000000e+02 0.000000000000e+00 2.450000000000e+01 0.000000000000e+00 0.000000000000e+00 0.000000000000e+00
4.990000000000e+02 0.000000000000e+00 2.550000000000e+01 0.000000000000e+00 0.000000000000e+00 0.000000000000e+00
5.000000000000e+02 0.000000000000e+00 2.550000000000e+01 0.000000000000e+00 0.000000000000e+00 0.000000000000e+00
4.990000000000e+02 0.000000000000e+00 2.650000000000e+01 0.000000000000e+00 0.000000000000e+00 0.000000000000e+00
5.000000000000e+02 0.000000000000e+00 2.650000000000e+01 0.000000000000e+00 0.000000000000e+00 0.000000000000e+00
4.990000000000e+02 0.000000000000e+00 2.750000000000e+01 0.000000000000e+00 0.000000000000e+00 0.000000000000e+00
5.000000000000e+02 0.000000000000e+00 2.750000000000e+01 0.000000000000e+00 0.000000000000e+00 0.000000000000e+00
4.990000000000e+02 0.000000000000e+00 2.850000000000e+01 0.000000000000e+00 0.000000000000e+00 0.000000000000e+00
5.000000000000e+02 0.000000000000e+00 2.850000000000e+01 0.000000000000e+00 0.000000000000e+00 0.000000000000e+00
4.990000000000e+02 0.000000000000e+00 2.950000000000e+01 0.000000000000e+00 0.000000000000e+00 0.000000000000e+00
5.000000000000e+02 0.000000000000e+00 2.950000000000e+01 0.000000000000e+00 0.000000000000e+00 0.000000000000e+00
VARIABLES = "X","Y","Z",VELOCITY1_X,VELOCITY1_Y,VELOCITY1_Z
ZONE T="1.797693134862e+308s", 
4.990000000000e+02 0.000000000000e+00 5.000000000000e-01 2.685627722546e-07 -2.673857587936e-10 0.000000000000e+00
5.000000000000e+02 0.000000000000e+00 5.000000000000e-01 2.690975338679e-07 -2.673666712896e-10 0.000000000000e+00
4.990000000000e+02 0.000000000000e+00 1.500000000000e+00 9.391018382424e-09 -5.440721109770e-10 0.000000000000e+00
5.000000000000e+02 0.000000000000e+00 1.500000000000e+00 9.409717790547e-09 -5.440334551027e-10 0.000000000000e+00
4.990000000000e+02 0.000000000000e+00 2.500000000000e+00 2.496345151085e-08 -5.782750626833e-10 0.000000000000e+00
5.000000000000e+02 0.000000000000e+00 2.500000000000e+00 2.501315959628e-08 -5.782339611247e-10 0.000000000000e+00
4.990000000000e+02 0.000000000000e+00 3.500000000000e+00 4.914415326060e-08 -6.520553068439e-10 0.000000000000e+00
5.000000000000e+02 0.000000000000e+00 3.500000000000e+00 4.924201138237e-08 -6.520089906353e-10 0.000000000000e+00
4.990000000000e+02 0.000000000000e+00 4.500000000000e+00 3.186984843532e-08 -7.327073779492e-10 0.000000000000e+00
5.000000000000e+02 0.000000000000e+00 4.500000000000e+00 3.193330940818e-08 -7.326553870301e-10 0.000000000000e+00
4.990000000000e+02 0.000000000000e+00 5.500000000000e+00 4.483463774961e-10 -7.648806578062e-10 0.000000000000e+00
5.000000000000e+02 0.000000000000e+00 5.500000000000e+00 4.492392062340e-10 -7.648263559094e-10 0.000000000000e+00
4.990000000000e+02 0.000000000000e+00 6.500000000000e+00 6.180521228116e-09 -7.714840047000e-10 0.000000000000e+00
5.000000000000e+02 0.000000000000e+00 6.500000000000e+00 6.192834535597e-09 -7.714292709512e-10 0.000000000000e+00
4.990000000000e+02 0.000000000000e+00 7.500000000000e+00 1.753596452616e-09 -7.793867044284e-10 0.000000000000e+00
5.000000000000e+02 0.000000000000e+00 7.500000000000e+00 1.757090260610e-09 -7.793314794652e-10 0.000000000000e+00
4.990000000000e+02 0.000000000000e+00 8.500000000000e+00 1.614488762349e-09 -7.827421189618e-10 0.000000000000e+00
5.000000000000e+02 0.000000000000e+00 8.500000000000e+00 1.617705850004e-09 -7.826866777051e-10 0.000000000000e+00
4.990000000000e+02 0.000000000000e+00 9.500000000000e+00 1.431910307715e-08 -7.986189797067e-10 0.000000000000e+00
5.000000000000e+02 0.000000000000e+00 9.500000000000e+00 1.434763942935e-08 -7.985626076695e-10 0.000000000000e+00
4.990000000000e+02 0.000000000000e+00 1.050000000000e+01 2.543081854340e-08 -8.382254523029e-10 0.000000000000e+00
5.000000000000e+02 0.000000000000e+00 1.050000000000e+01 2.548150017001e-08 -8.381666469184e-10 0.000000000000e+00
4.990000000000e+02 0.000000000000e+00 1.150000000000e+01 7.481219276106e-07 -1.609047838445e-09 0.000000000000e+00
5.000000000000e+02 0.000000000000e+00 1.150000000000e+01 7.496128876240e-07 -1.608942891911e-09 0.000000000000e+00
4.990000000000e+02 0.000000000000e+00 1.250000000000e+01 8.215551849183e-09 -2.362590843827e-09 0.000000000000e+00
5.000000000000e+02 0.000000000000e+00 1.250000000000e+01 8.231925068466e-09 -2.362440678172e-09 0.000000000000e+00
4.990000000000e+02 0.000000000000e+00 1.350000000000e+01 8.035645638198e-08 -2.450856404359e-09 0.000000000000e+00
5.000000000000e+02 0.000000000000e+00 1.350000000000e+01 8.051661401670e-08 -2.450701049017e-09 0.000000000000e+00
4.990000000000e+02 0.000000000000e+00 1.450000000000e+01 7.485742503946e-10 -2.531669678927e-09 0.000000000000e+00
5.000000000000e+02 0.000000000000e+00 1.450000000000e+01 7.500663869560e-10 -2.531509544164e-09 0.000000000000e+00
4.990000000000e+02 0.000000000000e+00 1.550000000000e+01 1.016202953447e-10 -2.532517714840e-09 0.000000000000e+00
5.000000000000e+02 0.000000000000e+00 1.550000000000e+01 1.018231639695e-10 -2.532357540685e-09 0.000000000000e+00
4.990000000000e+02 0.000000000000e+00 1.650000000000e+01 1.174131234618e-08 -2.544406566318e-09 0.000000000000e+00
5.000000000000e+02 0.000000000000e+00 1.650000000000e+01 1.176488771104e-08 -2.544246771952e-09 0.000000000000e+00
4.990000000000e+02 0.000000000000e+00 1.750000000000e+01 3.792757993828e-08 -2.594267588742e-09 0.000000000000e+00
5.000000000000e+02 0.000000000000e+00 1.750000000000e+01 3.800373862828e-08 -2.594109549882e-09 0.000000000000e+00
4.990000000000e+02 0.000000000000e+00 1.850000000000e+01 2.198152222354e-09 -2.634544487610e-09 0.000000000000e+00
5.000000000000e+02 0.000000000000e+00 1.850000000000e+01 2.202566331133e-09 -2.634387949501e-09 0.000000000000e+00
4.990000000000e+02 0.000000000000e+00 1.950000000000e+01 8.521478645356e-10 -2.637607526709e-09 0.000000000000e+00
5.000000000000e+02 0.000000000000e+00 1.950000000000e+01 8.538596507283e-10 -2.637451091690e-09 0.000000000000e+00
4.990000000000e+02 0.000000000000e+00 2.050000000000e+01 1.318368993443e-08 -2.651713334396e-09 0.000000000000e+00
5.000000000000e+02 0.000000000000e+00 2.050000000000e+01 1.321019109999e-08 -2.651557584750e-09 0.000000000000e+00
4.990000000000e+02 0.000000000000e+00 2.150000000000e+01 3.151475456478e-07 -2.981691821283e-09 0.000000000000e+00
5.000000000000e+02 0.000000000000e+00 2.150000000000e+01 3.157810667626e-07 -2.981553453506e-09 0.000000000000e+00
4.990000000000e+02 0.000000000000e+00 2.250000000000e+01 4.340687123879e-07 -3.734600664984e-09 0.000000000000e+00
5.000000000000e+02 0.000000000000e+00 2.250000000000e+01 4.349412978878e-07 -3.734499880986e-09 0.000000000000e+00
4.990000000000e+02 0.000000000000e+00 2.350000000000e+01 8.193699786714e-09 -4.179012593805e-09 0.000000000000e+00
5.000000000000e+02 0.000000000000e+00 2.350000000000e+01 8.210171253524e-09 -4.178932492321e-09 0.000000000000e+00
4.990000000000e+02 0.000000000000e+00 2.450000000000e+01 5.557407858187e-07 -4.745805309570e-09 0.000000000000e+00
5.000000000000e+02 0.000000000000e+00 2.450000000000e+01 5.568580028497e-07 -4.745753764925e-09 0.000000000000e+00
4.990000000000e+02 0.000000000000e+00 2.550000000000e+01 6.148793722865e-09 -5.310443166198e-09 0.000000000000e+00
5.000000000000e+02 0.000000000000e+00 2.550000000000e+01 6.161154799377e-09 -5.310419791813e-09 0.000000000000e+00
4.990000000000e+02 0.000000000000e+00 2.650000000000e+01 1.810005658019e-09 -5.318441465893e-09 0.000000000000e+00
5.000000000000e+02 0.000000000000e+00 2.650000000000e+01 1.813644438940e-09 -5.318418464271e-09 0.000000000000e+00
4.990000000000e+02 0.000000000000e+00 2.750000000000e+01 3.373480958817e-08 -5.354168813911e-09 0.000000000000e+00
5.000000000000e+02 0.000000000000e+00 2.750000000000e+01 3.380263218363e-08 -5.354147490798e-09 0.000000000000e+00
4.990000000000e+02 0.000000000000e+00 2.850000000000e+01 1.775216369599e-07 -5.566502672824e-09 0.000000000000e+00
5.000000000000e+02 0.000000000000e+00 2.850000000000e+01 1.778785373445e-07 -5.566492348982e-09 0.000000000000e+00
4.990000000000e+02 0.000000000000e+00 2.950000000000e+01 1.229084465897e-08 -5.757257962401e-09 0.000000000000e+00
5.000000000000e+02 0.000000000000e+00 2.950000000000e+01 1.231555492677e-08 -5.757257403882e-09 0.000000000000e+00
