 TITLE = "Profiles along polylines"
 VARIABLES = "DIST" "HEAD" "VELOCITY_X1" "VELOCITY_Y1" "VELOCITY_Z1" 
 ZONE T="TIME=0.000000000000e+00"
0.000000000000e+00 3.000000000000e+01 0.000000000000e+00 0.000000000000e+00 0.000000000000e+00 
1.000000000000e+00 3.000000000000e+01 0.000000000000e+00 0.000000000000e+00 0.000000000000e+00 
2.000000000000e+00 3.000000000000e+01 0.000000000000e+00 0.000000000000e+00 0.000000000000e+00 
3.000000000000e+00 3.000000000000e+01 0.000000000000e+00 0.000000000000e+00 0.000000000000e+00 
4.000000000000e+00 3.000000000000e+01 0.000000000000e+00 0.000000000000e+00 0.000000000000e+00 
5.000000000000e+00 3.000000000000e+01 0.000000000000e+00 0.000000000000e+00 0.000000000000e+00 
6.000000000000e+00 3.000000000000e+01 0.000000000000e+00 0.000000000000e+00 0.000000000000e+00 
7.000000000000e+00 3.000000000000e+01 0.000000000000e+00 0.000000000000e+00 0.000000000000e+00 
8.000000000000e+00 3.000000000000e+01 0.000000000000e+00 0.000000000000e+00 0.000000000000e+00 
9.000000000000e+00 3.000000000000e+01 0.000000000000e+00 0.000000000000e+00 0.000000000000e+00 
1.000000000000e+01 3.000000000000e+01 0.000000000000e+00 0.000000000000e+00 0.000000000000e+00 
1.100000000000e+01 3.000000000000e+01 0.000000000000e+00 0.000000000000e+00 0.000000000000e+00 
1.200000000000e+01 3.000000000000e+01 0.000000000000e+00 0.000000000000e+00 0.000000000000e+00 
1.300000000000e+01 3.000000000000e+01 0.000000000000e+00 0.000000000000e+00 0.000000000000e+00 
1.400000000000e+01 3.000000000000e+01 0.000000000000e+00 0.000000000000e+00 0.000000000000e+00 
1.500000000000e+01 3.000000000000e+01 0.000000000000e+00 0.000000000000e+00 0.000000000000e+00 
1.600000000000e+01 3.000000000000e+01 0.000000000000e+00 0.000000000000e+00 0.000000000000e+00 
1.700000000000e+01 3.000000000000e+01 0.000000000000e+00 0.000000000000e+00 0.000000000000e+00 
1.800000000000e+01 3.000000000000e+01 0.000000000000e+00 0.000000000000e+00 0.000000000000e+00 
1.900000000000e+01 3.000000000000e+01 0.000000000000e+00 0.000000000000e+00 0.000000000000e+00 
2.000000000000e+01 3.000000000000e+01 0.000000000000e+00 0.000000000000e+00 0.000000000000e+00 
2.100000000000e+01 3.000000000000e+01 0.000000000000e+00 0.000000000000e+00 0.000000000000e+00 
2.200000000000e+01 3.000000000000e+01 0.000000000000e+00 0.000000000000e+00 0.000000000000e+00 
2.300000000000e+01 3.000000000000e+01 0.000000000000e+00 0.000000000000e+00 0.000000000000e+00 
2.400000000000e+01 3.000000000000e+01 0.000000000000e+00 0.000000000000e+00 0.000000000000e+00 
2.500000000000e+01 3.000000000000e+01 0.000000000000e+00 0.000000000000e+00 0.000000000000e+00 
2.600000000000e+01 3.000000000000e+01 0.000000000000e+00 0.000000000000e+00 0.000000000000e+00 
2.700000000000e+01 3.000000000000e+01 0.000000000000e+00 0.000000000000e+00 0.000000000000e+00 
2.800000000000e+01 3.000000000000e+01 0.000000000000e+00 0.000000000000e+00 0.000000000000e+00 
2.900000000000e+01 3.000000000000e+01 0.000000000000e+00 0.000000000000e+00 0.000000000000e+00 
3.000000000000e+01 3.000000000000e+01 0.000000000000e+00 0.000000000000e+00 0.000000000000e+00 
 TITLE = "Profiles along polylines"
 VARIABLES = "DIST" "HEAD" "VELOCITY_X1" "VELOCITY_Y1" "VELOCITY_Z1" 
 ZONE T="TIME=1.797693134862e+308"
0.000000000000e+00 3.009739966285e+01 4.628859523480e-07 -1.595118113791e-10 0.000000000000e+00 
1.000000000000e+00 3.009739999038e+01 2.395365576381e-07 -2.420638994097e-10 0.000000000000e+00 
2.000000000000e+00 3.009741905239e+01 2.961012058862e-08 -3.348371282219e-10 0.000000000000e+00 
3.000000000000e+00 3.009742667494e+01 6.387669568318e-08 -3.671226569965e-10 0.000000000000e+00 
4.000000000000e+00 3.009743104212e+01 6.983174381973e-08 -4.133180170929e-10 0.000000000000e+00 
5.000000000000e+00 3.009743861152e+01 2.785883764563e-08 -4.470822597403e-10 0.000000000000e+00 
6.000000000000e+00 3.009800037410e+01 5.736429513140e-09 -4.587954648437e-10 0.000000000000e+00 
7.000000000000e+00 3.009804150102e+01 6.867891666878e-09 -4.633740899162e-10 0.000000000000e+00 
8.000000000000e+00 3.009818802556e+01 2.918422602981e-09 -4.669472789626e-10 0.000000000000e+00 
9.000000000000e+00 3.009834791417e+01 1.382135518877e-08 -4.731759820543e-10 0.000000000000e+00 
1.000000000000e+01 3.009836633936e+01 3.448475775455e-08 -4.912091773002e-10 0.000000000000e+00 
1.100000000000e+01 3.009837727257e+01 6.711391243216e-07 -7.549505334483e-10 0.000000000000e+00 
1.200000000000e+01 3.009837801413e+01 6.562061368049e-07 -1.251119468644e-09 0.000000000000e+00 
1.300000000000e+01 3.009847848077e+01 7.689321091087e-08 -1.525398850132e-09 0.000000000000e+00 
1.400000000000e+01 3.009848915029e+01 7.041538556612e-08 -1.580927148211e-09 0.000000000000e+00 
1.500000000000e+01 3.009967364496e+01 7.435502418078e-10 -1.607788957900e-09 0.000000000000e+00 
1.600000000000e+01 3.010840561886e+01 1.089964904883e-08 -1.615222147199e-09 0.000000000000e+00 
1.700000000000e+01 3.010848197002e+01 4.573210680052e-08 -1.652342486289e-09 0.000000000000e+00 
1.800000000000e+01 3.010850648046e+01 3.695023438173e-08 -1.706592712187e-09 0.000000000000e+00 
1.900000000000e+01 3.010894159149e+01 2.815339854877e-09 -1.732727063683e-09 0.000000000000e+00 
2.000000000000e+01 3.011006650853e+01 1.302938109428e-08 -1.743642354224e-09 0.000000000000e+00 
2.100000000000e+01 3.011013998898e+01 3.048983987140e-07 -1.964691386239e-09 0.000000000000e+00 
2.200000000000e+01 3.011014380663e+01 6.957545992182e-07 -2.660546176014e-09 0.000000000000e+00 
2.300000000000e+01 3.011014781058e+01 4.107070738132e-07 -3.430022010513e-09 0.000000000000e+00 
2.400000000000e+01 3.011039846003e+01 5.238618417625e-07 -4.080849282820e-09 0.000000000000e+00 
2.500000000000e+01 3.011040288201e+01 5.219638042298e-07 -4.809932074901e-09 0.000000000000e+00 
2.600000000000e+01 3.011086797187e+01 7.394256828324e-09 -5.178982117229e-09 0.000000000000e+00 
2.700000000000e+01 3.011245109505e+01 3.303783911026e-08 -5.207317332850e-09 0.000000000000e+00 
2.800000000000e+01 3.011253679620e+01 1.963606696624e-07 -5.368252220025e-09 0.000000000000e+00 
2.900000000000e+01 3.011255394007e+01 1.764290738162e-07 -5.629796785143e-09 0.000000000000e+00 
3.000000000000e+01 3.011281268934e+01 2.284850952139e-08 -5.753579537495e-09 0.000000000000e+00 
