 TITLE = "Profiles along polylines"
 VARIABLES = "DIST" "HEAD" "VELOCITY_X1" "VELOCITY_Y1" "VELOCITY_Z1" 
 ZONE T="TIME=0.000000000000e+00"
0.000000000000e+00 3.000000000000e+01 0.000000000000e+00 0.000000000000e+00 0.000000000000e+00 
1.000000000000e+00 3.000000000000e+01 0.000000000000e+00 0.000000000000e+00 0.000000000000e+00 
2.000000000000e+00 3.000000000000e+01 0.000000000000e+00 0.000000000000e+00 0.000000000000e+00 
3.000000000000e+00 3.000000000000e+01 0.000000000000e+00 0.000000000000e+00 0.000000000000e+00 
4.000000000000e+00 3.000000000000e+01 0.000000000000e+00 0.000000000000e+00 0.000000000000e+00 
5.000000000000e+00 3.000000000000e+01 0.000000000000e+00 0.000000000000e+00 0.000000000000e+00 
6.000000000000e+00 3.000000000000e+01 0.000000000000e+00 0.000000000000e+00 0.000000000000e+00 
7.000000000000e+00 3.000000000000e+01 0.000000000000e+00 0.000000000000e+00 0.000000000000e+00 
8.000000000000e+00 3.000000000000e+01 0.000000000000e+00 0.000000000000e+00 0.000000000000e+00 
9.000000000000e+00 3.000000000000e+01 0.000000000000e+00 0.000000000000e+00 0.000000000000e+00 
1.000000000000e+01 3.000000000000e+01 0.000000000000e+00 0.000000000000e+00 0.000000000000e+00 
1.100000000000e+01 3.000000000000e+01 0.000000000000e+00 0.000000000000e+00 0.000000000000e+00 
1.200000000000e+01 3.000000000000e+01 0.000000000000e+00 0.000000000000e+00 0.000000000000e+00 
1.300000000000e+01 3.000000000000e+01 0.000000000000e+00 0.000000000000e+00 0.000000000000e+00 
1.400000000000e+01 3.000000000000e+01 0.000000000000e+00 0.000000000000e+00 0.000000000000e+00 
1.500000000000e+01 3.000000000000e+01 0.000000000000e+00 0.000000000000e+00 0.000000000000e+00 
1.600000000000e+01 3.000000000000e+01 0.000000000000e+00 0.000000000000e+00 0.000000000000e+00 
1.700000000000e+01 3.000000000000e+01 0.000000000000e+00 0.000000000000e+00 0.000000000000e+00 
1.800000000000e+01 3.000000000000e+01 0.000000000000e+00 0.000000000000e+00 0.000000000000e+00 
1.900000000000e+01 3.000000000000e+01 0.000000000000e+00 0.000000000000e+00 0.000000000000e+00 
2.000000000000e+01 3.000000000000e+01 0.000000000000e+00 0.000000000000e+00 0.000000000000e+00 
2.100000000000e+01 3.000000000000e+01 0.000000000000e+00 0.000000000000e+00 0.000000000000e+00 
2.200000000000e+01 3.000000000000e+01 0.000000000000e+00 0.000000000000e+00 0.000000000000e+00 
2.300000000000e+01 3.000000000000e+01 0.000000000000e+00 0.000000000000e+00 0.000000000000e+00 
2.400000000000e+01 3.000000000000e+01 0.000000000000e+00 0.000000000000e+00 0.000000000000e+00 
2.500000000000e+01 3.000000000000e+01 0.000000000000e+00 0.000000000000e+00 0.000000000000e+00 
2.600000000000e+01 3.000000000000e+01 0.000000000000e+00 0.000000000000e+00 0.000000000000e+00 
2.700000000000e+01 3.000000000000e+01 0.000000000000e+00 0.000000000000e+00 0.000000000000e+00 
2.800000000000e+01 3.000000000000e+01 0.000000000000e+00 0.000000000000e+00 0.000000000000e+00 
2.900000000000e+01 3.000000000000e+01 0.000000000000e+00 0.000000000000e+00 0.000000000000e+00 
3.000000000000e+01 3.000000000000e+01 0.000000000000e+00 0.000000000000e+00 0.000000000000e+00 
 TITLE = "Profiles along polylines"
 VARIABLES = "DIST" "HEAD" "VELOCITY_X1" "VELOCITY_Y1" "VELOCITY_Z1" 
 ZONE T="TIME=1.797693134862e+308"
0.000000000000e+00 3.000986377017e+01 4.802406821496e-07 -1.956897243493e-11 0.000000000000e+00 
1.000000000000e+00 3.000986381035e+01 2.485177959498e-07 -2.969651650221e-11 0.000000000000e+00 
2.000000000000e+00 3.000986614889e+01 3.072338795751e-08 -4.108195002522e-11 0.000000000000e+00 
3.000000000000e+00 3.000986708421e+01 6.628094156343e-08 -4.505858283328e-11 0.000000000000e+00 
4.000000000000e+00 3.000986762033e+01 7.246178723788e-08 -5.075277579358e-11 0.000000000000e+00 
5.000000000000e+00 3.000986855001e+01 2.890922055572e-08 -5.491752038223e-11 0.000000000000e+00 
6.000000000000e+00 3.000993756170e+01 5.970190247059e-09 -5.638625254139e-11 0.000000000000e+00 
7.000000000000e+00 3.000994261835e+01 7.149289724523e-09 -5.700328353639e-11 0.000000000000e+00 
8.000000000000e+00 3.000996065299e+01 3.040321457031e-09 -5.748899719872e-11 0.000000000000e+00 
9.000000000000e+00 3.000998034335e+01 1.441065579771e-08 -5.836278961092e-11 0.000000000000e+00 
1.000000000000e+01 3.000998261943e+01 3.595856822375e-08 -6.090624470903e-11 0.000000000000e+00 
1.100000000000e+01 3.000998397985e+01 6.998635950407e-07 -9.819164415960e-11 0.000000000000e+00 
1.200000000000e+01 3.000998407840e+01 6.842948878185e-07 -1.683480559956e-10 0.000000000000e+00 
1.300000000000e+01 3.000999770983e+01 8.024213323689e-08 -2.072885429995e-10 0.000000000000e+00 
1.400000000000e+01 3.000999916188e+01 7.348781379388e-08 -2.154523853847e-10 0.000000000000e+00 
1.500000000000e+01 3.001016080352e+01 7.825940289462e-10 -2.194280784417e-10 0.000000000000e+00 
1.600000000000e+01 3.001135264529e+01 1.214394036288e-08 -2.226910391091e-10 0.000000000000e+00 
1.700000000000e+01 3.001136327617e+01 5.097724827582e-08 -2.394140409814e-10 0.000000000000e+00 
1.800000000000e+01 3.001136696129e+01 4.119558083138e-08 -2.639120216837e-10 0.000000000000e+00 
1.900000000000e+01 3.001143606384e+01 3.149939648864e-09 -2.758095609059e-10 0.000000000000e+00 
2.000000000000e+01 3.001161552913e+01 1.471110845291e-08 -2.820635086918e-10 0.000000000000e+00 
2.100000000000e+01 3.001162757803e+01 3.444634959443e-07 -4.140528491562e-10 0.000000000000e+00 
2.200000000000e+01 3.001162852637e+01 7.860841400489e-07 -8.306606804938e-10 0.000000000000e+00 
2.300000000000e+01 3.001162995331e+01 4.640726504326e-07 -1.292894341036e-09 0.000000000000e+00 
2.400000000000e+01 3.001172879088e+01 5.958480941244e-07 -1.790475011857e-09 0.000000000000e+00 
2.500000000000e+01 3.001173089520e+01 5.937638993185e-07 -2.442536595409e-09 0.000000000000e+00 
2.600000000000e+01 3.001197983587e+01 8.528604195106e-09 -2.778714109089e-09 0.000000000000e+00 
2.700000000000e+01 3.001283126809e+01 3.988094269682e-08 -2.902694001180e-09 0.000000000000e+00 
2.800000000000e+01 3.001288070567e+01 2.375554637145e-07 -3.719559644863e-09 0.000000000000e+00 
2.900000000000e+01 3.001289447384e+01 2.134861205200e-07 -5.054656518800e-09 0.000000000000e+00 
3.000000000000e+01 3.001315024939e+01 2.765258632029e-08 -5.687455404975e-09 0.000000000000e+00 
