VARIABLES = "X","Y","Z",VELOCITY1_X,VELOCITY1_Y,VELOCITY1_Z
ZONE T="0.000000000000e+00s", 
4.900000000000e+01 0.000000000000e+00 5.000000000000e-01 0.000000000000e+00 0.000000000000e+00 0.000000000000e+00
5.000000000000e+01 0.000000000000e+00 5.000000000000e-01 0.000000000000e+00 0.000000000000e+00 0.000000000000e+00
4.900000000000e+01 0.000000000000e+00 1.500000000000e+00 0.000000000000e+00 0.000000000000e+00 0.000000000000e+00
5.000000000000e+01 0.000000000000e+00 1.500000000000e+00 0.000000000000e+00 0.000000000000e+00 0.000000000000e+00
4.900000000000e+01 0.000000000000e+00 2.500000000000e+00 0.000000000000e+00 0.000000000000e+00 0.000000000000e+00
5.000000000000e+01 0.000000000000e+00 2.500000000000e+00 0.000000000000e+00 0.000000000000e+00 0.000000000000e+00
4.900000000000e+01 0.000000000000e+00 3.500000000000e+00 0.000000000000e+00 0.000000000000e+00 0.000000000000e+00
5.000000000000e+01 0.000000000000e+00 3.500000000000e+00 0.000000000000e+00 0.000000000000e+00 0.000000000000e+00
4.900000000000e+01 0.000000000000e+00 4.500000000000e+00 0.000000000000e+00 0.000000000000e+00 0.000000000000e+00
5.000000000000e+01 0.000000000000e+00 4.500000000000e+00 0.000000000000e+00 0.000000000000e+00 0.000000000000e+00
4.900000000000e+01 0.000000000000e+00 5.500000000000e+00 0.000000000000e+00 0.000000000000e+00 0.000000000000e+00
5.000000000000e+01 0.000000000000e+00 5.500000000000e+00 0.000000000000e+00 0.000000000000e+00 0.000000000000e+00
4.900000000000e+01 0.000000000000e+00 6.500000000000e+00 0.000000000000e+00 0.000000000000e+00 0.000000000000e+00
5.000000000000e+01 0.000000000000e+00 6.500000000000e+00 0.000000000000e+00 0.000000000000e+00 0.000000000000e+00
4.900000000000e+01 0.000000000000e+00 7.500000000000e+00 0.000000000000e+00 0.000000000000e+00 0.000000000000e+00
5.000000000000e+01 0.000000000000e+00 7.500000000000e+00 0.000000000000e+00 0.000000000000e+00 0.000000000000e+00
4.900000000000e+01 0.000000000000e+00 8.500000000000e+00 0.000000000000e+00 0.000000000000e+00 0.000000000000e+00
5.000000000000e+01 0.000000000000e+00 8.500000000000e+00 0.000000000000e+00 0.000000000000e+00 0.000000000000e+00
4.900000000000e+01 0.000000000000e+00 9.500000000000e+00 0.000000000000e+00 0.000000000000e+00 0.000000000000e+00
5.000000000000e+01 0.000000000000e+00 9.500000000000e+00 0.000000000000e+00 0.000000000000e+00 0.000000000000e+00
4.900000000000e+01 0.000000000000e+00 1.050000000000e+01 0.000000000000e+00 0.000000000000e+00 0.000000000000e+00
5.000000000000e+01 0.000000000000e+00 1.050000000000e+01 0.000000000000e+00 0.000000000000e+00 0.000000000000e+00
4.900000000000e+01 0.000000000000e+00 1.150000000000e+01 0.000000000000e+00 0.000000000000e+00 0.000000000000e+00
5.000000000000e+01 0.000000000000e+00 1.150000000000e+01 0.000000000000e+00 0.000000000000e+00 0.000000000000e+00
4.900000000000e+01 0.000000000000e+00 1.250000000000e+01 0.000000000000e+00 0.000000000000e+00 0.000000000000e+00
5.000000000000e+01 0.000000000000e+00 1.250000000000e+01 0.000000000000e+00 0.000000000000e+00 0.000000000000e+00
4.900000000000e+01 0.000000000000e+00 1.350000000000e+01 0.000000000000e+00 0.000000000000e+00 0.000000000000e+00
5.000000000000e+01 0.000000000000e+00 1.350000000000e+01 0.000000000000e+00 0.000000000000e+00 0.000000000000e+00
4.900000000000e+01 0.000000000000e+00 1.450000000000e+01 0.000000000000e+00 0.000000000000e+00 0.000000000000e+00
5.000000000000e+01 0.000000000000e+00 1.450000000000e+01 0.000000000000e+00 0.000000000000e+00 0.000000000000e+00
4.900000000000e+01 0.000000000000e+00 1.550000000000e+01 0.000000000000e+00 0.000000000000e+00 0.000000000000e+00
5.000000000000e+01 0.000000000000e+00 1.550000000000e+01 0.000000000000e+00 0.000000000000e+00 0.000000000000e+00
4.900000000000e+01 0.000000000000e+00 1.650000000000e+01 0.000000000000e+00 0.000000000000e+00 0.000000000000e+00
5.000000000000e+01 0.000000000000e+00 1.650000000000e+01 0.000000000000e+00 0.000000000000e+00 0.000000000000e+00
4.900000000000e+01 0.000000000000e+00 1.750000000000e+01 0.000000000000e+00 0.000000000000e+00 0.000000000000e+00
5.000000000000e+01 0.000000000000e+00 1.750000000000e+01 0.000000000000e+00 0.000000000000e+00 0.000000000000e+00
4.900000000000e+01 0.000000000000e+00 1.850000000000e+01 0.000000000000e+00 0.000000000000e+00 0.000000000000e+00
5.000000000000e+01 0.000000000000e+00 1.850000000000e+01 0.000000000000e+00 0.000000000000e+00 0.000000000000e+00
4.900000000000e+01 0.000000000000e+00 1.950000000000e+01 0.000000000000e+00 0.000000000000e+00 0.000000000000e+00
5.000000000000e+01 0.000000000000e+00 1.950000000000e+01 0.000000000000e+00 0.000000000000e+00 0.000000000000e+00
4.900000000000e+01 0.000000000000e+00 2.050000000000e+01 0.000000000000e+00 0.000000000000e+00 0.000000000000e+00
5.000000000000e+01 0.000000000000e+00 2.050000000000e+01 0.000000000000e+00 0.000000000000e+00 0.000000000000e+00
4.900000000000e+01 0.000000000000e+00 2.150000000000e+01 0.000000000000e+00 0.000000000000e+00 0.000000000000e+00
5.000000000000e+01 0.000000000000e+00 2.150000000000e+01 0.000000000000e+00 0.000000000000e+00 0.000000000000e+00
4.900000000000e+01 0.000000000000e+00 2.250000000000e+01 0.000000000000e+00 0.000000000000e+00 0.000000000000e+00
5.000000000000e+01 0.000000000000e+00 2.250000000000e+01 0.000000000000e+00 0.000000000000e+00 0.000000000000e+00
4.900000000000e+01 0.000000000000e+00 2.350000000000e+01 0.000000000000e+00 0.000000000000e+00 0.000000000000e+00
5.000000000000e+01 0.000000000000e+00 2.350000000000e+01 0.000000000000e+00 0.000000000000e+00 0.000000000000e+00
4.900000000000e+01 0.000000000000e+00 2.450000000000e+01 0.000000000000e+00 0.000000000000e+00 0.000000000000e+00
5.000000000000e+01 0.000000000000e+00 2.450000000000e+01 0.000000000000e+00 0.000000000000e+00 0.000000000000e+00
4.900000000000e+01 0.000000000000e+00 2.550000000000e+01 0.000000000000e+00 0.000000000000e+00 0.000000000000e+00
5.000000000000e+01 0.000000000000e+00 2.550000000000e+01 0.000000000000e+00 0.000000000000e+00 0.000000000000e+00
4.900000000000e+01 0.000000000000e+00 2.650000000000e+01 0.000000000000e+00 0.000000000000e+00 0.000000000000e+00
5.000000000000e+01 0.000000000000e+00 2.650000000000e+01 0.000000000000e+00 0.000000000000e+00 0.000000000000e+00
4.900000000000e+01 0.000000000000e+00 2.750000000000e+01 0.000000000000e+00 0.000000000000e+00 0.000000000000e+00
5.000000000000e+01 0.000000000000e+00 2.750000000000e+01 0.000000000000e+00 0.000000000000e+00 0.000000000000e+00
4.900000000000e+01 0.000000000000e+00 2.850000000000e+01 0.000000000000e+00 0.000000000000e+00 0.000000000000e+00
5.000000000000e+01 0.000000000000e+00 2.850000000000e+01 0.000000000000e+00 0.000000000000e+00 0.000000000000e+00
4.900000000000e+01 0.000000000000e+00 2.950000000000e+01 0.000000000000e+00 0.000000000000e+00 0.000000000000e+00
5.000000000000e+01 0.000000000000e+00 2.950000000000e+01 0.000000000000e+00 0.000000000000e+00 0.000000000000e+00
VARIABLES = "X","Y","Z",VELOCITY1_X,VELOCITY1_Y,VELOCITY1_Z
ZONE T="1.797693134862e+308s", 
4.900000000000e+01 0.000000000000e+00 5.000000000000e-01 2.664223053504e-08 -2.691388332314e-10 0.000000000000e+00
5.000000000000e+01 0.000000000000e+00 5.000000000000e-01 2.718046203213e-08 -2.691391169832e-10 0.000000000000e+00
4.900000000000e+01 0.000000000000e+00 1.500000000000e+00 9.316166550307e-10 -5.477830654045e-10 0.000000000000e+00
5.000000000000e+01 0.000000000000e+00 1.500000000000e+00 9.504373703550e-10 -5.477827547931e-10 0.000000000000e+00
4.900000000000e+01 0.000000000000e+00 2.500000000000e+00 2.476439116563e-09 -5.822141070536e-10 0.000000000000e+00
5.000000000000e+01 0.000000000000e+00 2.500000000000e+00 2.526468547894e-09 -5.822138782005e-10 0.000000000000e+00
4.900000000000e+01 0.000000000000e+00 3.500000000000e+00 4.875220209587e-09 -6.564886899588e-10 0.000000000000e+00
5.000000000000e+01 0.000000000000e+00 3.500000000000e+00 4.973710405643e-09 -6.564883622722e-10 0.000000000000e+00
4.900000000000e+01 0.000000000000e+00 4.500000000000e+00 3.161563930470e-09 -7.376934761025e-10 0.000000000000e+00
5.000000000000e+01 0.000000000000e+00 4.500000000000e+00 3.225434464352e-09 -7.376930970863e-10 0.000000000000e+00
4.900000000000e+01 0.000000000000e+00 5.500000000000e+00 4.447639233622e-11 -7.700891954497e-10 0.000000000000e+00
5.000000000000e+01 0.000000000000e+00 5.500000000000e+00 4.537491220014e-11 -7.700888135231e-10 0.000000000000e+00
4.900000000000e+01 0.000000000000e+00 6.500000000000e+00 6.130519436803e-10 -7.767315533904e-10 0.000000000000e+00
5.000000000000e+01 0.000000000000e+00 6.500000000000e+00 6.254369335109e-10 -7.767311602039e-10 0.000000000000e+00
4.900000000000e+01 0.000000000000e+00 7.500000000000e+00 1.739391075823e-10 -7.846839493847e-10 0.000000000000e+00
5.000000000000e+01 0.000000000000e+00 7.500000000000e+00 1.774530573587e-10 -7.846835585724e-10 0.000000000000e+00
4.900000000000e+01 0.000000000000e+00 8.500000000000e+00 1.601362990982e-10 -7.880592962892e-10 0.000000000000e+00
5.000000000000e+01 0.000000000000e+00 8.500000000000e+00 1.633714038818e-10 -7.880589084848e-10 0.000000000000e+00
4.900000000000e+01 0.000000000000e+00 9.500000000000e+00 1.420228133978e-09 -8.040245332479e-10 0.000000000000e+00
5.000000000000e+01 0.000000000000e+00 9.500000000000e+00 1.448919843546e-09 -8.040241365631e-10 0.000000000000e+00
4.900000000000e+01 0.000000000000e+00 1.050000000000e+01 2.522325448700e-09 -8.438579004512e-10 0.000000000000e+00
5.000000000000e+01 0.000000000000e+00 1.050000000000e+01 2.573281949915e-09 -8.438575066713e-10 0.000000000000e+00
4.900000000000e+01 0.000000000000e+00 1.150000000000e+01 7.420143951618e-08 -1.618927307296e-09 0.000000000000e+00
5.000000000000e+01 0.000000000000e+00 1.150000000000e+01 7.570047043494e-08 -1.618926835063e-09 0.000000000000e+00
4.900000000000e+01 0.000000000000e+00 1.250000000000e+01 8.148464992086e-10 -2.376986127970e-09 0.000000000000e+00
5.000000000000e+01 0.000000000000e+00 1.250000000000e+01 8.313081748097e-10 -2.376985095987e-09 0.000000000000e+00
4.900000000000e+01 0.000000000000e+00 1.350000000000e+01 7.969906071414e-09 -2.465731545046e-09 0.000000000000e+00
5.000000000000e+01 0.000000000000e+00 1.350000000000e+01 8.130915724049e-09 -2.465730369123e-09 0.000000000000e+00
4.900000000000e+01 0.000000000000e+00 1.450000000000e+01 7.424323813958e-11 -2.547017504806e-09 0.000000000000e+00
5.000000000000e+01 0.000000000000e+00 1.450000000000e+01 7.574311308625e-11 -2.547016380551e-09 0.000000000000e+00
4.900000000000e+01 0.000000000000e+00 1.550000000000e+01 1.007521515252e-11 -2.547869474600e-09 0.000000000000e+00
5.000000000000e+01 0.000000000000e+00 1.550000000000e+01 1.027875566343e-11 -2.547868355161e-09 0.000000000000e+00
4.900000000000e+01 0.000000000000e+00 1.650000000000e+01 1.162589374027e-09 -2.559715640095e-09 0.000000000000e+00
5.000000000000e+01 0.000000000000e+00 1.650000000000e+01 1.186076251944e-09 -2.559714494611e-09 0.000000000000e+00
4.900000000000e+01 0.000000000000e+00 1.750000000000e+01 3.755431046869e-09 -2.609401894999e-09 0.000000000000e+00
5.000000000000e+01 0.000000000000e+00 1.750000000000e+01 3.831298908792e-09 -2.609400864735e-09 0.000000000000e+00
4.900000000000e+01 0.000000000000e+00 1.850000000000e+01 2.176495067002e-10 -2.649549638932e-09 0.000000000000e+00
5.000000000000e+01 0.000000000000e+00 1.850000000000e+01 2.220465040957e-10 -2.649548550940e-09 0.000000000000e+00
4.900000000000e+01 0.000000000000e+00 1.950000000000e+01 8.436864028109e-11 -2.652601113845e-09 0.000000000000e+00
5.000000000000e+01 0.000000000000e+00 1.950000000000e+01 8.607307554990e-11 -2.652600022686e-09 0.000000000000e+00
4.900000000000e+01 0.000000000000e+00 2.050000000000e+01 1.305079156937e-09 -2.666637228893e-09 0.000000000000e+00
5.000000000000e+01 0.000000000000e+00 2.050000000000e+01 1.331444579161e-09 -2.666636197262e-09 0.000000000000e+00
4.900000000000e+01 0.000000000000e+00 2.150000000000e+01 3.119676330821e-08 -2.994972057008e-09 0.000000000000e+00
5.000000000000e+01 0.000000000000e+00 2.150000000000e+01 3.182700605390e-08 -2.994971483751e-09 0.000000000000e+00
4.900000000000e+01 0.000000000000e+00 2.250000000000e+01 4.296886887768e-08 -3.744312464073e-09 0.000000000000e+00
5.000000000000e+01 0.000000000000e+00 2.250000000000e+01 4.383693285991e-08 -3.744311283893e-09 0.000000000000e+00
4.900000000000e+01 0.000000000000e+00 2.350000000000e+01 8.111010583745e-10 -4.186703468208e-09 0.000000000000e+00
5.000000000000e+01 0.000000000000e+00 2.350000000000e+01 8.274870167258e-10 -4.186702856336e-09 0.000000000000e+00
4.900000000000e+01 0.000000000000e+00 2.450000000000e+01 5.501279518391e-08 -4.750630788487e-09 0.000000000000e+00
5.000000000000e+01 0.000000000000e+00 2.450000000000e+01 5.612417229415e-08 -4.750630470575e-09 0.000000000000e+00
4.900000000000e+01 0.000000000000e+00 2.550000000000e+01 6.086689671284e-10 -5.312685100235e-09 0.000000000000e+00
5.000000000000e+01 0.000000000000e+00 2.550000000000e+01 6.209654024322e-10 -5.312684911875e-09 0.000000000000e+00
4.900000000000e+01 0.000000000000e+00 2.650000000000e+01 1.791716310041e-10 -5.320645458868e-09 0.000000000000e+00
5.000000000000e+01 0.000000000000e+00 2.650000000000e+01 1.827912853462e-10 -5.320645300171e-09 0.000000000000e+00
4.900000000000e+01 0.000000000000e+00 2.750000000000e+01 3.339358130088e-09 -5.356189414383e-09 0.000000000000e+00
5.000000000000e+01 0.000000000000e+00 2.750000000000e+01 3.406820484304e-09 -5.356189216853e-09 0.000000000000e+00
4.900000000000e+01 0.000000000000e+00 2.850000000000e+01 1.757259117211e-08 -5.567453506914e-09 0.000000000000e+00
5.000000000000e+01 0.000000000000e+00 2.850000000000e+01 1.792759602152e-08 -5.567453283277e-09 0.000000000000e+00
4.900000000000e+01 0.000000000000e+00 2.950000000000e+01 1.216651569160e-09 -5.757316800846e-09 0.000000000000e+00
5.000000000000e+01 0.000000000000e+00 2.950000000000e+01 1.241230586326e-09 -5.757316829759e-09 0.000000000000e+00
