VARIABLES = "X","Y","Z",VELOCITY1_X,VELOCITY1_Y,VELOCITY1_Z
ZONE T="0.000000000000e+00s", 
9.990000000000e+02 0.000000000000e+00 5.000000000000e-01 0.000000000000e+00 0.000000000000e+00 0.000000000000e+00
9.990000000000e+02 0.000000000000e+00 1.500000000000e+00 0.000000000000e+00 0.000000000000e+00 0.000000000000e+00
9.990000000000e+02 0.000000000000e+00 2.500000000000e+00 0.000000000000e+00 0.000000000000e+00 0.000000000000e+00
9.990000000000e+02 0.000000000000e+00 3.500000000000e+00 0.000000000000e+00 0.000000000000e+00 0.000000000000e+00
9.990000000000e+02 0.000000000000e+00 4.500000000000e+00 0.000000000000e+00 0.000000000000e+00 0.000000000000e+00
9.990000000000e+02 0.000000000000e+00 5.500000000000e+00 0.000000000000e+00 0.000000000000e+00 0.000000000000e+00
9.990000000000e+02 0.000000000000e+00 6.500000000000e+00 0.000000000000e+00 0.000000000000e+00 0.000000000000e+00
9.990000000000e+02 0.000000000000e+00 7.500000000000e+00 0.000000000000e+00 0.000000000000e+00 0.000000000000e+00
9.990000000000e+02 0.000000000000e+00 8.500000000000e+00 0.000000000000e+00 0.000000000000e+00 0.000000000000e+00
9.990000000000e+02 0.000000000000e+00 9.500000000000e+00 0.000000000000e+00 0.000000000000e+00 0.000000000000e+00
9.990000000000e+02 0.000000000000e+00 1.050000000000e+01 0.000000000000e+00 0.000000000000e+00 0.000000000000e+00
9.990000000000e+02 0.000000000000e+00 1.150000000000e+01 0.000000000000e+00 0.000000000000e+00 0.000000000000e+00
9.990000000000e+02 0.000000000000e+00 1.250000000000e+01 0.000000000000e+00 0.000000000000e+00 0.000000000000e+00
9.990000000000e+02 0.000000000000e+00 1.350000000000e+01 0.000000000000e+00 0.000000000000e+00 0.000000000000e+00
9.990000000000e+02 0.000000000000e+00 1.450000000000e+01 0.000000000000e+00 0.000000000000e+00 0.000000000000e+00
9.990000000000e+02 0.000000000000e+00 1.550000000000e+01 0.000000000000e+00 0.000000000000e+00 0.000000000000e+00
9.990000000000e+02 0.000000000000e+00 1.650000000000e+01 0.000000000000e+00 0.000000000000e+00 0.000000000000e+00
9.990000000000e+02 0.000000000000e+00 1.750000000000e+01 0.000000000000e+00 0.000000000000e+00 0.000000000000e+00
9.990000000000e+02 0.000000000000e+00 1.850000000000e+01 0.000000000000e+00 0.000000000000e+00 0.000000000000e+00
9.990000000000e+02 0.000000000000e+00 1.950000000000e+01 0.000000000000e+00 0.000000000000e+00 0.000000000000e+00
9.990000000000e+02 0.000000000000e+00 2.050000000000e+01 0.000000000000e+00 0.000000000000e+00 0.000000000000e+00
9.990000000000e+02 0.000000000000e+00 2.150000000000e+01 0.000000000000e+00 0.000000000000e+00 0.000000000000e+00
9.990000000000e+02 0.000000000000e+00 2.250000000000e+01 0.000000000000e+00 0.000000000000e+00 0.000000000000e+00
9.990000000000e+02 0.000000000000e+00 2.350000000000e+01 0.000000000000e+00 0.000000000000e+00 0.000000000000e+00
9.990000000000e+02 0.000000000000e+00 2.450000000000e+01 0.000000000000e+00 0.000000000000e+00 0.000000000000e+00
9.990000000000e+02 0.000000000000e+00 2.550000000000e+01 0.000000000000e+00 0.000000000000e+00 0.000000000000e+00
9.990000000000e+02 0.000000000000e+00 2.650000000000e+01 0.000000000000e+00 0.000000000000e+00 0.000000000000e+00
9.990000000000e+02 0.000000000000e+00 2.750000000000e+01 0.000000000000e+00 0.000000000000e+00 0.000000000000e+00
9.990000000000e+02 0.000000000000e+00 2.850000000000e+01 0.000000000000e+00 0.000000000000e+00 0.000000000000e+00
9.990000000000e+02 0.000000000000e+00 2.950000000000e+01 0.000000000000e+00 0.000000000000e+00 0.000000000000e+00
VARIABLES = "X","Y","Z",VELOCITY1_X,VELOCITY1_Y,VELOCITY1_Z
ZONE T="1.797693134862e+308s", 
9.990000000000e+02 0.000000000000e+00 5.000000000000e-01 4.804368581124e-07 -1.741253749963e-12 0.000000000000e+00
9.990000000000e+02 0.000000000000e+00 1.500000000000e+00 1.680026678224e-08 -3.543586787723e-12 0.000000000000e+00
9.990000000000e+02 0.000000000000e+00 2.500000000000e+00 4.466863700580e-08 -3.767467460652e-12 0.000000000000e+00
9.990000000000e+02 0.000000000000e+00 3.500000000000e+00 8.794447091565e-08 -4.251353988198e-12 0.000000000000e+00
9.990000000000e+02 0.000000000000e+00 4.500000000000e+00 5.703505402001e-08 -4.780952255144e-12 0.000000000000e+00
9.990000000000e+02 0.000000000000e+00 5.500000000000e+00 8.030608623530e-10 -4.992643162138e-12 0.000000000000e+00
9.990000000000e+02 0.000000000000e+00 6.500000000000e+00 1.113857108204e-08 -5.042506087347e-12 0.000000000000e+00
9.990000000000e+02 0.000000000000e+00 7.500000000000e+00 3.162384480961e-09 -5.102761449937e-12 0.000000000000e+00
9.990000000000e+02 0.000000000000e+00 8.500000000000e+00 2.916778553845e-09 -5.129216064447e-12 0.000000000000e+00
9.990000000000e+02 0.000000000000e+00 9.500000000000e+00 2.591463382638e-08 -5.258899694902e-12 0.000000000000e+00
9.990000000000e+02 0.000000000000e+00 1.050000000000e+01 4.603443172324e-08 -5.583768835200e-12 0.000000000000e+00
9.990000000000e+02 0.000000000000e+00 1.150000000000e+01 1.354400467035e-06 -1.192294589506e-11 0.000000000000e+00
9.990000000000e+02 0.000000000000e+00 1.250000000000e+01 1.487584128876e-08 -1.812306114591e-11 0.000000000000e+00
9.990000000000e+02 0.000000000000e+00 1.350000000000e+01 1.456781330305e-07 -1.888501514240e-11 0.000000000000e+00
9.990000000000e+02 0.000000000000e+00 1.450000000000e+01 1.359718158054e-09 -1.958633700666e-11 0.000000000000e+00
9.990000000000e+02 0.000000000000e+00 1.550000000000e+01 1.896636169404e-10 -1.959799131724e-11 0.000000000000e+00
9.990000000000e+02 0.000000000000e+00 1.650000000000e+01 2.414709962686e-08 -2.020246431537e-11 0.000000000000e+00
9.990000000000e+02 0.000000000000e+00 1.750000000000e+01 7.806876356728e-08 -2.275885216908e-11 0.000000000000e+00
9.990000000000e+02 0.000000000000e+00 1.850000000000e+01 4.529017790396e-09 -2.483495362004e-11 0.000000000000e+00
9.990000000000e+02 0.000000000000e+00 1.950000000000e+01 1.768400958408e-09 -2.501307531150e-11 0.000000000000e+00
9.990000000000e+02 0.000000000000e+00 2.050000000000e+01 2.774490311758e-08 -2.608204632191e-11 0.000000000000e+00
9.990000000000e+02 0.000000000000e+00 2.150000000000e+01 6.638469331415e-07 -5.158460845087e-11 0.000000000000e+00
9.990000000000e+02 0.000000000000e+00 2.250000000000e+01 9.144347370787e-07 -1.101131391509e-10 0.000000000000e+00
9.990000000000e+02 0.000000000000e+00 2.350000000000e+01 1.728181686244e-08 -1.450981713605e-10 0.000000000000e+00
9.990000000000e+02 0.000000000000e+00 2.450000000000e+01 1.182006317090e-06 -2.320250505513e-10 0.000000000000e+00
9.990000000000e+02 0.000000000000e+00 2.550000000000e+01 1.312127264844e-08 -3.214466403280e-10 0.000000000000e+00
9.990000000000e+02 0.000000000000e+00 2.650000000000e+01 3.998959453894e-09 -3.297001899008e-10 0.000000000000e+00
9.990000000000e+02 0.000000000000e+00 2.750000000000e+01 8.074038856638e-08 -5.032878989767e-10 0.000000000000e+00
9.990000000000e+02 0.000000000000e+00 2.850000000000e+01 4.277671084371e-07 -1.899631276031e-09 0.000000000000e+00
9.990000000000e+02 0.000000000000e+00 2.950000000000e+01 3.030486918550e-08 -4.381862560192e-09 0.000000000000e+00
