 TITLE = "Profiles along polylines"
 VARIABLES = "DIST" "HEAD" "VELOCITY_X1" "VELOCITY_Y1" "VELOCITY_Z1" 
 ZONE T="TIME=0.000000000000e+00"
0.000000000000e+00 3.000000000000e+01 0.000000000000e+00 0.000000000000e+00 0.000000000000e+00 
1.000000000000e+00 3.000000000000e+01 0.000000000000e+00 0.000000000000e+00 0.000000000000e+00 
2.000000000000e+00 3.000000000000e+01 0.000000000000e+00 0.000000000000e+00 0.000000000000e+00 
3.000000000000e+00 3.000000000000e+01 0.000000000000e+00 0.000000000000e+00 0.000000000000e+00 
4.000000000000e+00 3.000000000000e+01 0.000000000000e+00 0.000000000000e+00 0.000000000000e+00 
5.000000000000e+00 3.000000000000e+01 0.000000000000e+00 0.000000000000e+00 0.000000000000e+00 
6.000000000000e+00 3.000000000000e+01 0.000000000000e+00 0.000000000000e+00 0.000000000000e+00 
7.000000000000e+00 3.000000000000e+01 0.000000000000e+00 0.000000000000e+00 0.000000000000e+00 
8.000000000000e+00 3.000000000000e+01 0.000000000000e+00 0.000000000000e+00 0.000000000000e+00 
9.000000000000e+00 3.000000000000e+01 0.000000000000e+00 0.000000000000e+00 0.000000000000e+00 
1.000000000000e+01 3.000000000000e+01 0.000000000000e+00 0.000000000000e+00 0.000000000000e+00 
1.100000000000e+01 3.000000000000e+01 0.000000000000e+00 0.000000000000e+00 0.000000000000e+00 
1.200000000000e+01 3.000000000000e+01 0.000000000000e+00 0.000000000000e+00 0.000000000000e+00 
1.300000000000e+01 3.000000000000e+01 0.000000000000e+00 0.000000000000e+00 0.000000000000e+00 
1.400000000000e+01 3.000000000000e+01 0.000000000000e+00 0.000000000000e+00 0.000000000000e+00 
1.500000000000e+01 3.000000000000e+01 0.000000000000e+00 0.000000000000e+00 0.000000000000e+00 
1.600000000000e+01 3.000000000000e+01 0.000000000000e+00 0.000000000000e+00 0.000000000000e+00 
1.700000000000e+01 3.000000000000e+01 0.000000000000e+00 0.000000000000e+00 0.000000000000e+00 
1.800000000000e+01 3.000000000000e+01 0.000000000000e+00 0.000000000000e+00 0.000000000000e+00 
1.900000000000e+01 3.000000000000e+01 0.000000000000e+00 0.000000000000e+00 0.000000000000e+00 
2.000000000000e+01 3.000000000000e+01 0.000000000000e+00 0.000000000000e+00 0.000000000000e+00 
2.100000000000e+01 3.000000000000e+01 0.000000000000e+00 0.000000000000e+00 0.000000000000e+00 
2.200000000000e+01 3.000000000000e+01 0.000000000000e+00 0.000000000000e+00 0.000000000000e+00 
2.300000000000e+01 3.000000000000e+01 0.000000000000e+00 0.000000000000e+00 0.000000000000e+00 
2.400000000000e+01 3.000000000000e+01 0.000000000000e+00 0.000000000000e+00 0.000000000000e+00 
2.500000000000e+01 3.000000000000e+01 0.000000000000e+00 0.000000000000e+00 0.000000000000e+00 
2.600000000000e+01 3.000000000000e+01 0.000000000000e+00 0.000000000000e+00 0.000000000000e+00 
2.700000000000e+01 3.000000000000e+01 0.000000000000e+00 0.000000000000e+00 0.000000000000e+00 
2.800000000000e+01 3.000000000000e+01 0.000000000000e+00 0.000000000000e+00 0.000000000000e+00 
2.900000000000e+01 3.000000000000e+01 0.000000000000e+00 0.000000000000e+00 0.000000000000e+00 
3.000000000000e+01 3.000000000000e+01 0.000000000000e+00 0.000000000000e+00 0.000000000000e+00 
 TITLE = "Profiles along polylines"
 VARIABLES = "DIST" "HEAD" "VELOCITY_X1" "VELOCITY_Y1" "VELOCITY_Z1" 
 ZONE T="TIME=1.797693134862e+308"
0.000000000000e+00 3.054076285758e+01 2.691376490546e-10 -2.691033913016e-10 0.000000000000e+00 
1.000000000000e+00 3.054076341015e+01 1.392477957179e-10 -4.084457135122e-10 0.000000000000e+00 
2.000000000000e+00 3.054079557720e+01 1.721225066725e-11 -5.650049987080e-10 0.000000000000e+00 
3.000000000000e+00 3.054080843886e+01 3.713011018644e-11 -6.193569500038e-10 0.000000000000e+00 
4.000000000000e+00 3.054081580553e+01 4.058782841511e-11 -6.970942934652e-10 0.000000000000e+00 
5.000000000000e+00 3.054082857027e+01 1.618982453964e-11 -7.538977046703e-10 0.000000000000e+00 
6.000000000000e+00 3.054177579593e+01 3.321093362991e-12 -7.734196612217e-10 0.000000000000e+00 
7.000000000000e+00 3.054184510955e+01 3.974462419540e-12 -7.807169708101e-10 0.000000000000e+00 
8.000000000000e+00 3.054209190834e+01 1.687170685229e-12 -7.863812865998e-10 0.000000000000e+00 
9.000000000000e+00 3.054236113361e+01 7.982197366217e-12 -7.960514876540e-10 0.000000000000e+00 
1.000000000000e+01 3.054239210483e+01 1.991223069193e-11 -8.239506851087e-10 0.000000000000e+00 
1.100000000000e+01 3.054241040755e+01 3.875239986160e-10 -1.231353460894e-09 0.000000000000e+00 
1.200000000000e+01 3.054241160108e+01 3.788305386831e-10 -1.997925224544e-09 0.000000000000e+00 
1.300000000000e+01 3.054257118820e+01 4.436945342714e-11 -2.421380075007e-09 0.000000000000e+00 
1.400000000000e+01 3.054258811359e+01 4.062267787798e-11 -2.506396761886e-09 0.000000000000e+00 
1.500000000000e+01 3.054446493675e+01 4.257789877389e-13 -2.547470612372e-09 0.000000000000e+00 
1.600000000000e+01 3.055830004220e+01 5.922669680911e-12 -2.553819152122e-09 0.000000000000e+00 
1.700000000000e+01 3.055842050904e+01 2.483733664420e-11 -2.584580651443e-09 0.000000000000e+00 
1.800000000000e+01 3.055845852643e+01 2.006160645206e-11 -2.629497766485e-09 0.000000000000e+00 
1.900000000000e+01 3.055912459224e+01 1.525015637930e-12 -2.651102016162e-09 0.000000000000e+00 
2.000000000000e+01 3.056084486127e+01 7.017812668056e-12 -2.659646119108e-09 0.000000000000e+00 
2.100000000000e+01 3.056095666016e+01 1.641611853366e-10 -2.830821024998e-09 0.000000000000e+00 
2.200000000000e+01 3.056096191296e+01 3.745724590234e-10 -3.369619701913e-09 0.000000000000e+00 
2.300000000000e+01 3.056096668076e+01 2.210844500290e-10 -3.965490307862e-09 0.000000000000e+00 
2.400000000000e+01 3.056124910716e+01 2.819581590255e-10 -4.468650122505e-09 0.000000000000e+00 
2.500000000000e+01 3.056125383203e+01 2.808912119283e-10 -5.031634152985e-09 0.000000000000e+00 
2.600000000000e+01 3.056173140508e+01 3.978498060651e-12 -5.316668582624e-09 0.000000000000e+00 
2.700000000000e+01 3.056335621406e+01 1.777141999008e-11 -5.338421213911e-09 0.000000000000e+00 
2.800000000000e+01 3.056344397482e+01 1.056208425569e-10 -5.461813277738e-09 0.000000000000e+00 
2.900000000000e+01 3.056346130993e+01 9.488664687265e-11 -5.662373627155e-09 0.000000000000e+00 
3.000000000000e+01 3.056372022712e+01 1.228735422260e-11 -5.757313279519e-09 0.000000000000e+00 
