 TITLE = "Profiles along polylines"
 VARIABLES = "DIST" "HEAD" 
 ZONE T="TIME=0.000000000000e+00"
2.386823098935e+01 0.000000000000e+00 
2.413171238058e+01 0.000000000000e+00 
2.429106393362e+01 0.000000000000e+00 
2.455454532485e+01 0.000000000000e+00 
2.470966855076e+01 0.000000000000e+00 
2.497314994199e+01 0.000000000000e+00 
2.512408712063e+01 0.000000000000e+00 
2.538756851186e+01 0.000000000000e+00 
2.553436150465e+01 0.000000000000e+00 
2.579784289588e+01 0.000000000000e+00 
2.594053314630e+01 0.000000000000e+00 
2.620401453753e+01 0.000000000000e+00 
2.634264307172e+01 0.000000000000e+00 
2.660612446295e+01 0.000000000000e+00 
2.674073189797e+01 0.000000000000e+00 
2.700421328920e+01 0.000000000000e+00 
2.713483983599e+01 0.000000000000e+00 
2.739832122722e+01 0.000000000000e+00 
2.752500669347e+01 0.000000000000e+00 
2.778848808470e+01 0.000000000000e+00 
2.791127188033e+01 0.000000000000e+00 
2.817475327156e+01 0.000000000000e+00 
2.829367441662e+01 0.000000000000e+00 
2.855715580785e+01 0.000000000000e+00 
2.867225292726e+01 0.000000000000e+00 
2.893573431849e+01 0.000000000000e+00 
2.904704565261e+01 0.000000000000e+00 
2.931052704384e+01 0.000000000000e+00 
2.941809045075e+01 0.000000000000e+00 
2.968157184198e+01 0.000000000000e+00 
2.978542480013e+01 0.000000000000e+00 
3.004890619136e+01 0.000000000000e+00 
3.014908580689e+01 0.000000000000e+00 
3.041256719812e+01 0.000000000000e+00 
3.050911020206e+01 0.000000000000e+00 
3.077259159330e+01 0.000000000000e+00 
3.086553435418e+01 0.000000000000e+00 
3.112901574541e+01 0.000000000000e+00 
3.121839426604e+01 0.000000000000e+00 
3.148187565727e+01 0.000000000000e+00 
3.156772557951e+01 0.000000000000e+00 
3.183120697074e+01 0.000000000000e+00 
3.191356358000e+01 0.000000000000e+00 
3.217704497123e+01 0.000000000000e+00 
3.225594319844e+01 0.000000000000e+00 
3.251942458967e+01 0.000000000000e+00 
3.259489902088e+01 0.000000000000e+00 
3.285838041212e+01 0.000000000000e+00 
3.293046528502e+01 0.000000000000e+00 
3.319394667625e+01 0.000000000000e+00 
3.326267588713e+01 0.000000000000e+00 
3.352615727836e+01 0.000000000000e+00 
3.359156438361e+01 0.000000000000e+00 
3.385504577484e+01 0.000000000000e+00 
3.391716399526e+01 0.000000000000e+00 
3.418064538650e+01 0.000000000000e+00 
3.423950761125e+01 0.000000000000e+00 
3.450298900248e+01 0.000000000000e+00 
3.455862779060e+01 0.000000000000e+00 
3.482210918183e+01 0.000000000000e+00 
3.487455676872e+01 0.000000000000e+00 
3.513803815995e+01 0.000000000000e+00 
3.518732645607e+01 0.000000000000e+00 
3.545080784730e+01 0.000000000000e+00 
3.549696844726e+01 0.000000000000e+00 
3.576044983849e+01 0.000000000000e+00 
3.580351401948e+01 0.000000000000e+00 
3.606699541071e+01 0.000000000000e+00 
3.610699413368e+01 0.000000000000e+00 
3.637047552491e+01 0.000000000000e+00 
3.640743944604e+01 0.000000000000e+00 
3.667092083728e+01 0.000000000000e+00 
3.670488030626e+01 0.000000000000e+00 
3.696836169749e+01 0.000000000000e+00 
3.699934675844e+01 0.000000000000e+00 
3.726282814967e+01 0.000000000000e+00 
3.729086854722e+01 0.000000000000e+00 
3.755434993845e+01 0.000000000000e+00 
3.757947511848e+01 0.000000000000e+00 
3.784295650971e+01 0.000000000000e+00 
3.786519562272e+01 0.000000000000e+00 
3.812867701395e+01 0.000000000000e+00 
3.814805892095e+01 0.000000000000e+00 
3.841154031218e+01 0.000000000000e+00 
3.842809358523e+01 0.000000000000e+00 
3.869157497646e+01 0.000000000000e+00 
3.870532790186e+01 0.000000000000e+00 
3.896880929309e+01 0.000000000000e+00 
3.897978987708e+01 0.000000000000e+00 
3.924327126831e+01 0.000000000000e+00 
3.925150723481e+01 0.000000000000e+00 
3.951498862604e+01 0.000000000000e+00 
3.952050741972e+01 0.000000000000e+00 
3.978398881096e+01 0.000000000000e+00 
3.978681760276e+01 0.000000000000e+00 
4.005029899399e+01 0.000000000000e+00 
4.005046468137e+01 0.000000000000e+00 
4.031147528762e+01 0.000000000000e+00 
4.031394607260e+01 0.000000000000e+00 
4.056987578820e+01 0.000000000000e+00 
4.057495667885e+01 0.000000000000e+00 
4.082569228464e+01 0.000000000000e+00 
4.083335717943e+01 0.000000000000e+00 
4.107895061583e+01 0.000000000000e+00 
4.108917367587e+01 0.000000000000e+00 
4.132967636342e+01 0.000000000000e+00 
4.134243200706e+01 0.000000000000e+00 
4.157789485418e+01 0.000000000000e+00 
4.159315775465e+01 0.000000000000e+00 
4.182363116002e+01 0.000000000000e+00 
4.184137624542e+01 0.000000000000e+00 
4.206691010295e+01 0.000000000000e+00 
4.208711255125e+01 0.000000000000e+00 
4.230775625756e+01 0.000000000000e+00 
4.233039149418e+01 0.000000000000e+00 
4.254619395065e+01 0.000000000000e+00 
4.257123764879e+01 0.000000000000e+00 
4.278224726626e+01 0.000000000000e+00 
4.280967534188e+01 0.000000000000e+00 
4.301594004780e+01 0.000000000000e+00 
4.304572865749e+01 0.000000000000e+00 
4.324729590037e+01 0.000000000000e+00 
4.327942143903e+01 0.000000000000e+00 
4.347633819540e+01 0.000000000000e+00 
4.351077729160e+01 0.000000000000e+00 
4.370309006755e+01 0.000000000000e+00 
4.373981958663e+01 0.000000000000e+00 
4.392757442207e+01 0.000000000000e+00 
4.396657145878e+01 0.000000000000e+00 
4.414981393406e+01 0.000000000000e+00 
4.419105581330e+01 0.000000000000e+00 
4.436983105058e+01 0.000000000000e+00 
4.441329532529e+01 0.000000000000e+00 
4.458764799509e+01 0.000000000000e+00 
4.463331244182e+01 0.000000000000e+00 
4.480328676934e+01 0.000000000000e+00 
4.485112938632e+01 0.000000000000e+00 
4.501676915519e+01 0.000000000000e+00 
4.506676816057e+01 0.000000000000e+00 
4.522811671642e+01 0.000000000000e+00 
4.528025054642e+01 0.000000000000e+00 
4.543735080302e+01 0.000000000000e+00 
4.549159810765e+01 0.000000000000e+00 
4.564449255030e+01 0.000000000000e+00 
4.570083219425e+01 0.000000000000e+00 
4.584956288054e+01 0.000000000000e+00 
4.590797394153e+01 0.000000000000e+00 
4.605258250723e+01 0.000000000000e+00 
4.611304427177e+01 0.000000000000e+00 
4.625357193662e+01 0.000000000000e+00 
4.631606389846e+01 0.000000000000e+00 
4.645255147188e+01 0.000000000000e+00 
4.651705332785e+01 0.000000000000e+00 
4.664954121191e+01 0.000000000000e+00 
4.671603286311e+01 0.000000000000e+00 
4.684456105544e+01 0.000000000000e+00 
4.691302260314e+01 0.000000000000e+00 
4.703763070242e+01 0.000000000000e+00 
4.710804244667e+01 0.000000000000e+00 
4.722876965284e+01 0.000000000000e+00 
4.730111209365e+01 0.000000000000e+00 
4.741799721302e+01 0.000000000000e+00 
4.749225104407e+01 0.000000000000e+00 
4.760533249727e+01 0.000000000000e+00 
4.768147860425e+01 0.000000000000e+00 
4.779079442887e+01 0.000000000000e+00 
4.786881388850e+01 0.000000000000e+00 
4.797440174133e+01 0.000000000000e+00 
4.805427582010e+01 0.000000000000e+00 
4.815617297961e+01 0.000000000000e+00 
4.823788313257e+01 0.000000000000e+00 
4.833612650379e+01 0.000000000000e+00 
4.841965437084e+01 0.000000000000e+00 
4.851428049285e+01 0.000000000000e+00 
4.859960789502e+01 0.000000000000e+00 
4.869065294301e+01 0.000000000000e+00 
4.877776188408e+01 0.000000000000e+00 
4.886526166882e+01 0.000000000000e+00 
4.895413433424e+01 0.000000000000e+00 
4.903812430673e+01 0.000000000000e+00 
4.912874306005e+01 0.000000000000e+00 
4.920925831869e+01 0.000000000000e+00 
4.930160569797e+01 0.000000000000e+00 
4.937868099036e+01 0.000000000000e+00 
4.947273970992e+01 0.000000000000e+00 
4.954640943469e+01 0.000000000000e+00 
4.964216238159e+01 0.000000000000e+00 
4.971246059531e+01 0.000000000000e+00 
4.980989082592e+01 0.000000000000e+00 
4.987685124473e+01 0.000000000000e+00 
4.997594198654e+01 0.000000000000e+00 
5.003959798776e+01 0.000000000000e+00 
5.014033263596e+01 0.000000000000e+00 
5.020071726219e+01 0.000000000000e+00 
5.030307937899e+01 0.000000000000e+00 
5.036022534480e+01 0.000000000000e+00 
5.046419865342e+01 0.000000000000e+00 
5.051813834670e+01 0.000000000000e+00 
5.062370673604e+01 0.000000000000e+00 
5.067447221667e+01 0.000000000000e+00 
5.078161973793e+01 0.000000000000e+00 
5.082924274958e+01 0.000000000000e+00 
5.093795360790e+01 0.000000000000e+00 
5.098246557905e+01 0.000000000000e+00 
5.109272414081e+01 0.000000000000e+00 
5.113415618070e+01 0.000000000000e+00 
5.124594697028e+01 0.000000000000e+00 
5.128432987522e+01 0.000000000000e+00 
5.139763757193e+01 0.000000000000e+00 
5.143300183154e+01 0.000000000000e+00 
5.154781126645e+01 0.000000000000e+00 
5.158018706715e+01 0.000000000000e+00 
5.169648322277e+01 0.000000000000e+00 
5.172590045127e+01 0.000000000000e+00 
5.184366845839e+01 0.000000000000e+00 
5.187015670245e+01 0.000000000000e+00 
5.198938184250e+01 0.000000000000e+00 
5.201297038906e+01 0.000000000000e+00 
5.213363809368e+01 0.000000000000e+00 
5.215435594009e+01 0.000000000000e+00 
5.227645178029e+01 0.000000000000e+00 
5.229432763743e+01 0.000000000000e+00 
5.241783733132e+01 0.000000000000e+00 
5.243289961635e+01 0.000000000000e+00 
5.255780902866e+01 0.000000000000e+00 
5.257008587608e+01 0.000000000000e+00 
5.269638100758e+01 0.000000000000e+00 
5.270590027478e+01 0.000000000000e+00 
5.283356726731e+01 0.000000000000e+00 
5.284035652716e+01 0.000000000000e+00 
5.296938166601e+01 0.000000000000e+00 
5.297346821512e+01 0.000000000000e+00 
5.310383791839e+01 0.000000000000e+00 
5.310524878778e+01 0.000000000000e+00 
5.323571155638e+01 0.000000000000e+00 
5.323694960635e+01 0.000000000000e+00 
5.336486969698e+01 0.000000000000e+00 
5.336873017901e+01 0.000000000000e+00 
5.349273625577e+01 0.000000000000e+00 
5.349919294761e+01 0.000000000000e+00 
5.361932414903e+01 0.000000000000e+00 
5.362835108821e+01 0.000000000000e+00 
5.374464616317e+01 0.000000000000e+00 
5.375621764700e+01 0.000000000000e+00 
5.386871495726e+01 0.000000000000e+00 
5.388280554026e+01 0.000000000000e+00 
5.399154306300e+01 0.000000000000e+00 
5.400812755440e+01 0.000000000000e+00 
5.411314288726e+01 0.000000000000e+00 
5.413219634849e+01 0.000000000000e+00 
5.423352671456e+01 0.000000000000e+00 
5.425502445423e+01 0.000000000000e+00 
5.435270670429e+01 0.000000000000e+00 
5.437662427849e+01 0.000000000000e+00 
5.447069489324e+01 0.000000000000e+00 
5.449700810579e+01 0.000000000000e+00 
5.458750320061e+01 0.000000000000e+00 
5.461618809552e+01 0.000000000000e+00 
5.470314342513e+01 0.000000000000e+00 
5.473417628447e+01 0.000000000000e+00 
5.481762724756e+01 0.000000000000e+00 
5.485098459184e+01 0.000000000000e+00 
5.493096623029e+01 0.000000000000e+00 
5.496662481637e+01 0.000000000000e+00 
5.504317182244e+01 0.000000000000e+00 
5.508110863879e+01 0.000000000000e+00 
5.515425535942e+01 0.000000000000e+00 
5.519444762152e+01 0.000000000000e+00 
5.526422806006e+01 0.000000000000e+00 
5.530665321367e+01 0.000000000000e+00 
5.537310103410e+01 0.000000000000e+00 
5.541773675066e+01 0.000000000000e+00 
5.548088527914e+01 0.000000000000e+00 
5.552770945130e+01 0.000000000000e+00 
5.558759168034e+01 0.000000000000e+00 
5.563658242533e+01 0.000000000000e+00 
5.569323101780e+01 0.000000000000e+00 
5.574436667037e+01 0.000000000000e+00 
5.579781396348e+01 0.000000000000e+00 
5.585107307157e+01 0.000000000000e+00 
5.590135107814e+01 0.000000000000e+00 
5.595671240903e+01 0.000000000000e+00 
5.600385282138e+01 0.000000000000e+00 
5.606129535471e+01 0.000000000000e+00 
5.610532954841e+01 0.000000000000e+00 
5.616483246937e+01 0.000000000000e+00 
5.620579150699e+01 0.000000000000e+00 
5.626733421261e+01 0.000000000000e+00 
5.630524884733e+01 0.000000000000e+00 
5.636881093964e+01 0.000000000000e+00 
5.640371161623e+01 0.000000000000e+00 
5.646927289822e+01 0.000000000000e+00 
5.650118975657e+01 0.000000000000e+00 
5.656873023856e+01 0.000000000000e+00 
5.659769311456e+01 0.000000000000e+00 
5.666719300746e+01 0.000000000000e+00 
5.669323143903e+01 0.000000000000e+00 
5.676467114780e+01 0.000000000000e+00 
5.678781438085e+01 0.000000000000e+00 
5.686117450579e+01 0.000000000000e+00 
5.688145149221e+01 0.000000000000e+00 
5.695671283026e+01 0.000000000000e+00 
5.697415223123e+01 0.000000000000e+00 
5.705129577208e+01 0.000000000000e+00 
5.706592596380e+01 0.000000000000e+00 
5.714493288344e+01 0.000000000000e+00 
5.715678196027e+01 0.000000000000e+00 
5.723763362246e+01 0.000000000000e+00 
5.724672939731e+01 0.000000000000e+00 
5.732940735504e+01 0.000000000000e+00 
5.733577735977e+01 0.000000000000e+00 
5.742026335150e+01 0.000000000000e+00 
5.742393484254e+01 0.000000000000e+00 
5.751021078854e+01 0.000000000000e+00 
5.751121074969e+01 0.000000000000e+00 
5.759761389636e+01 0.000000000000e+00 
5.759925875100e+01 0.000000000000e+00 
5.768315301307e+01 0.000000000000e+00 
5.768741623377e+01 0.000000000000e+00 
5.776783673960e+01 0.000000000000e+00 
5.777469214092e+01 0.000000000000e+00 
5.785167362685e+01 0.000000000000e+00 
5.786109528759e+01 0.000000000000e+00 
5.793467214378e+01 0.000000000000e+00 
5.794663440430e+01 0.000000000000e+00 
5.801684067642e+01 0.000000000000e+00 
5.803131813083e+01 0.000000000000e+00 
5.809818752436e+01 0.000000000000e+00 
5.811515501809e+01 0.000000000000e+00 
5.817872090507e+01 0.000000000000e+00 
5.819815353501e+01 0.000000000000e+00 
5.825844895292e+01 0.000000000000e+00 
5.828032206765e+01 0.000000000000e+00 
5.833737971823e+01 0.000000000000e+00 
5.836166891559e+01 0.000000000000e+00 
5.841552117414e+01 0.000000000000e+00 
5.844220229631e+01 0.000000000000e+00 
5.849288121556e+01 0.000000000000e+00 
5.852193034415e+01 0.000000000000e+00 
5.856946765815e+01 0.000000000000e+00 
5.860086110946e+01 0.000000000000e+00 
5.864528823726e+01 0.000000000000e+00 
5.867900256537e+01 0.000000000000e+00 
5.872035060958e+01 0.000000000000e+00 
5.875636260679e+01 0.000000000000e+00 
5.879466235724e+01 0.000000000000e+00 
5.883294904938e+01 0.000000000000e+00 
5.886823098935e+01 0.000000000000e+00 
5.890876962850e+01 0.000000000000e+00 
5.898383200082e+01 0.000000000000e+00 
5.905814374848e+01 0.000000000000e+00 
5.913171238058e+01 0.000000000000e+00 
 TITLE = "Profiles along polylines"
 VARIABLES = "DIST" "HEAD" 
 ZONE T="TIME=1.797693134862e+308"
2.386823098935e+01 3.294899465021e+01 
2.413171238058e+01 3.293552489561e+01 
2.429106393362e+01 3.294865564289e+01 
2.455454532485e+01 3.293518492833e+01 
2.470966855076e+01 3.294832151300e+01 
2.497314994199e+01 3.293484984780e+01 
2.512408712063e+01 3.294799218217e+01 
2.538756851186e+01 3.293451957556e+01 
2.553436150465e+01 3.294766757339e+01 
2.579784289588e+01 3.293419403452e+01 
2.594053314630e+01 3.294734761098e+01 
2.620401453753e+01 3.293387314893e+01 
2.634264307172e+01 3.294703222062e+01 
2.660612446295e+01 3.293355684436e+01 
2.674073189797e+01 3.294672132925e+01 
2.700421328920e+01 3.293324504768e+01 
2.713483983599e+01 3.294641486510e+01 
2.739832122722e+01 3.293293768705e+01 
2.752500669347e+01 3.294611275766e+01 
2.778848808470e+01 3.293263469185e+01 
2.791127188033e+01 3.294581493763e+01 
2.817475327156e+01 3.293233599272e+01 
2.829367441662e+01 3.294552133692e+01 
2.855715580785e+01 3.293204152149e+01 
2.867225292726e+01 3.294523188862e+01 
2.893573431849e+01 3.293175121118e+01 
2.904704565261e+01 3.294494652701e+01 
2.931052704384e+01 3.293146499597e+01 
2.941809045075e+01 3.294466518747e+01 
2.968157184198e+01 3.293118281118e+01 
2.978542480013e+01 3.294438780651e+01 
3.004890619136e+01 3.293090459324e+01 
3.014908580689e+01 3.294411432176e+01 
3.041256719812e+01 3.293063027970e+01 
3.050911020206e+01 3.294384467190e+01 
3.077259159330e+01 3.293035980916e+01 
3.086553435418e+01 3.294357879669e+01 
3.112901574541e+01 3.293009312132e+01 
3.121839426604e+01 3.294331663690e+01 
3.148187565727e+01 3.292983015688e+01 
3.156772557951e+01 3.294305813435e+01 
3.183120697074e+01 3.292957085757e+01 
3.191356358000e+01 3.294280323185e+01 
3.217704497123e+01 3.292931516613e+01 
3.225594319844e+01 3.294255187320e+01 
3.251942458967e+01 3.292906302629e+01 
3.259489902088e+01 3.294230400313e+01 
3.285838041212e+01 3.292881438273e+01 
3.293046528502e+01 3.294205956737e+01 
3.319394667625e+01 3.292856918108e+01 
3.326267588713e+01 3.294181851254e+01 
3.352615727836e+01 3.292832736791e+01 
3.359156438361e+01 3.294158078618e+01 
3.385504577484e+01 3.292808889068e+01 
3.391716399526e+01 3.294134633675e+01 
3.418064538650e+01 3.292785369778e+01 
3.423950761125e+01 3.294111511355e+01 
3.450298900248e+01 3.292762173845e+01 
3.455862779060e+01 3.294088706677e+01 
3.482210918183e+01 3.292739296281e+01 
3.487455676872e+01 3.294066214745e+01 
3.513803815995e+01 3.292716732182e+01 
3.518732645607e+01 3.294044030744e+01 
3.545080784730e+01 3.292694476729e+01 
3.549696844726e+01 3.294022149944e+01 
3.576044983849e+01 3.292672525183e+01 
3.580351401948e+01 3.294000567692e+01 
3.606699541071e+01 3.292650872885e+01 
3.610699413368e+01 3.293979279416e+01 
3.637047552491e+01 3.292629515257e+01 
3.640743944604e+01 3.293958280620e+01 
3.667092083728e+01 3.292608447797e+01 
3.670488030626e+01 3.293937566885e+01 
3.696836169749e+01 3.292587666077e+01 
3.699934675844e+01 3.293917133865e+01 
3.726282814967e+01 3.292567165748e+01 
3.729086854722e+01 3.293896977289e+01 
3.755434993845e+01 3.292546942531e+01 
3.757947511848e+01 3.293877092956e+01 
3.784295650971e+01 3.292526992219e+01 
3.786519562272e+01 3.293857476739e+01 
3.812867701395e+01 3.292507310678e+01 
3.814805892095e+01 3.293838124576e+01 
3.841154031218e+01 3.292487893841e+01 
3.842809358523e+01 3.293819032476e+01 
3.869157497646e+01 3.292468737710e+01 
3.870532790186e+01 3.293800196513e+01 
3.896880929309e+01 3.292449838354e+01 
3.897978987708e+01 3.293781612829e+01 
3.924327126831e+01 3.292431191907e+01 
3.925150723481e+01 3.293763277627e+01 
3.951498862604e+01 3.292412794568e+01 
3.952050741972e+01 3.293745187177e+01 
3.978398881096e+01 3.292394642601e+01 
3.978681760276e+01 3.293727337808e+01 
4.005029899399e+01 3.292376732328e+01 
4.005046468137e+01 3.293709725913e+01 
4.031147528762e+01 3.293692347943e+01 
4.031394607260e+01 3.292359060136e+01 
4.056987578820e+01 3.293675200407e+01 
4.057495667885e+01 3.292341622471e+01 
4.082569228464e+01 3.293658279874e+01 
4.083335717943e+01 3.292324415836e+01 
4.107895061583e+01 3.293641582969e+01 
4.108917367587e+01 3.292307436795e+01 
4.132967636342e+01 3.293625106372e+01 
4.134243200706e+01 3.292290681966e+01 
4.157789485418e+01 3.293608846819e+01 
4.159315775465e+01 3.292274148024e+01 
4.182363116002e+01 3.293592801099e+01 
4.184137624542e+01 3.292257831700e+01 
4.206691010295e+01 3.293576966053e+01 
4.208711255125e+01 3.292241729776e+01 
4.230775625756e+01 3.293561338575e+01 
4.233039149418e+01 3.292225839089e+01 
4.254619395065e+01 3.293545915611e+01 
4.257123764879e+01 3.292210156527e+01 
4.278224726626e+01 3.293530694155e+01 
4.280967534188e+01 3.292194679031e+01 
4.301594004780e+01 3.293515671252e+01 
4.304572865749e+01 3.292179403589e+01 
4.324729590037e+01 3.293500843992e+01 
4.327942143903e+01 3.292164327240e+01 
4.347633819540e+01 3.293486209517e+01 
4.351077729160e+01 3.292149447071e+01 
4.370309006755e+01 3.293471765013e+01 
4.373981958663e+01 3.292134760217e+01 
4.392757442207e+01 3.293457507711e+01 
4.396657145878e+01 3.292120263858e+01 
4.414981393406e+01 3.293443434888e+01 
4.419105581330e+01 3.292105955223e+01 
4.436983105058e+01 3.293429543867e+01 
4.441329532529e+01 3.292091831582e+01 
4.458764799509e+01 3.293415832011e+01 
4.463331244182e+01 3.292077890252e+01 
4.480328676934e+01 3.293402296728e+01 
4.485112938632e+01 3.292064128593e+01 
4.501676915519e+01 3.293388935467e+01 
4.506676816057e+01 3.292050544006e+01 
4.522811671642e+01 3.293375745718e+01 
4.528025054642e+01 3.292037133937e+01 
4.543735080302e+01 3.293362725012e+01 
4.549159810765e+01 3.292023895870e+01 
4.564449255030e+01 3.293349870919e+01 
4.570083219425e+01 3.292010827332e+01 
4.584956288054e+01 3.293337181049e+01 
4.590797394153e+01 3.291997925888e+01 
4.605258250723e+01 3.293324653049e+01 
4.611304427177e+01 3.291985189142e+01 
4.625357193662e+01 3.293312284605e+01 
4.631606389846e+01 3.291972614737e+01 
4.645255147188e+01 3.293300073439e+01 
4.651705332785e+01 3.291960200355e+01 
4.664954121191e+01 3.293288017310e+01 
4.671603286311e+01 3.291947943714e+01 
4.684456105544e+01 3.293276114013e+01 
4.691302260314e+01 3.291935842566e+01 
4.703763070242e+01 3.293264361375e+01 
4.710804244667e+01 3.291923894702e+01 
4.722876965284e+01 3.293252757263e+01 
4.730111209365e+01 3.291912097948e+01 
4.741799721302e+01 3.293241299574e+01 
4.749225104407e+01 3.291900450162e+01 
4.760533249727e+01 3.293229986238e+01 
4.768147860425e+01 3.291888949239e+01 
4.779079442887e+01 3.293218815221e+01 
4.786881388850e+01 3.291877593105e+01 
4.797440174133e+01 3.293207784517e+01 
4.805427582010e+01 3.291866379720e+01 
4.815617297961e+01 3.293196892155e+01 
4.823788313257e+01 3.291855307075e+01 
4.833612650379e+01 3.293186136194e+01 
4.841965437084e+01 3.291844373194e+01 
4.851428049285e+01 3.293175514722e+01 
4.859960789502e+01 3.291833576131e+01 
4.869065294301e+01 3.293165025860e+01 
4.877776188408e+01 3.291822913972e+01 
4.886526166882e+01 3.293154667754e+01 
4.895413433424e+01 3.291812384832e+01 
4.903812430673e+01 3.293144438584e+01 
4.912874306005e+01 3.291801986855e+01 
4.920925831869e+01 3.293134336556e+01 
4.930160569797e+01 3.291791718215e+01 
4.937868099036e+01 3.293124359903e+01 
4.947273970992e+01 3.291781577113e+01 
4.954640943469e+01 3.293114506887e+01 
4.964216238159e+01 3.291771561781e+01 
4.971246059531e+01 3.293104775797e+01 
4.980989082592e+01 3.291761670476e+01 
4.987685124473e+01 3.293095164947e+01 
4.997594198654e+01 3.291751901482e+01 
5.003959798776e+01 3.293085672681e+01 
5.014033263596e+01 3.291742253111e+01 
5.020071726219e+01 3.293076297363e+01 
5.030307937899e+01 3.291732723701e+01 
5.036022534480e+01 3.293067037387e+01 
5.046419865342e+01 3.291723311614e+01 
5.051813834670e+01 3.293057891170e+01 
5.062370673604e+01 3.291714015239e+01 
5.067447221667e+01 3.293048857152e+01 
5.078161973793e+01 3.291704832989e+01 
5.082924274958e+01 3.293039933800e+01 
5.093795360790e+01 3.291695763302e+01 
5.098246557905e+01 3.293031119602e+01 
5.109272414081e+01 3.291686804640e+01 
5.113415618070e+01 3.293022413070e+01 
5.124594697028e+01 3.291677955488e+01 
5.128432987522e+01 3.293013812739e+01 
5.139763757193e+01 3.291669214355e+01 
5.143300183154e+01 3.293005317167e+01 
5.154781126645e+01 3.291660579771e+01 
5.158018706715e+01 3.292996924932e+01 
5.169648322277e+01 3.291652050291e+01 
5.172590045127e+01 3.292988634636e+01 
5.184366845839e+01 3.291643624490e+01 
5.187015670245e+01 3.292980444900e+01 
5.198938184250e+01 3.291635300966e+01 
5.201297038906e+01 3.292972354368e+01 
5.213363809368e+01 3.291627078338e+01 
5.215435594009e+01 3.292964361703e+01 
5.227645178029e+01 3.291618955244e+01 
5.229432763743e+01 3.292956465590e+01 
5.241783733132e+01 3.291610930346e+01 
5.243289961635e+01 3.292948664731e+01 
5.255780902866e+01 3.291603002324e+01 
5.257008587608e+01 3.292940957850e+01 
5.269638100758e+01 3.291595169878e+01 
5.270590027478e+01 3.292933343689e+01 
5.283356726731e+01 3.291587431728e+01 
5.284035652716e+01 3.292925821010e+01 
5.296938166601e+01 3.291579786614e+01 
5.297346821512e+01 3.292918388593e+01 
5.310383791839e+01 3.291572233294e+01 
5.310524878778e+01 3.292911045236e+01 
5.323571155638e+01 3.292903789756e+01 
5.323694960635e+01 3.291564770544e+01 
5.336486969698e+01 3.292896620985e+01 
5.336873017901e+01 3.291557397160e+01 
5.349273625577e+01 3.292889537775e+01 
5.349919294761e+01 3.291550111954e+01 
5.361932414903e+01 3.292882538995e+01 
5.362835108821e+01 3.291542913758e+01 
5.374464616317e+01 3.292875623530e+01 
5.375621764700e+01 3.291535801420e+01 
5.386871495726e+01 3.292868790281e+01 
5.388280554026e+01 3.291528773805e+01 
5.399154306300e+01 3.292862038167e+01 
5.400812755440e+01 3.291521829796e+01 
5.411314288726e+01 3.292855366121e+01 
5.413219634849e+01 3.291514968290e+01 
5.423352671456e+01 3.292848773093e+01 
5.425502445423e+01 3.291508188203e+01 
5.435270670429e+01 3.292842258048e+01 
5.437662427849e+01 3.291501488467e+01 
5.447069489324e+01 3.292835819966e+01 
5.449700810579e+01 3.291494868027e+01 
5.458750320061e+01 3.292829457843e+01 
5.461618809552e+01 3.291488325847e+01 
5.470314342513e+01 3.292823170689e+01 
5.473417628447e+01 3.291481860903e+01 
5.481762724756e+01 3.292816957528e+01 
5.485098459184e+01 3.291475472189e+01 
5.493096623029e+01 3.292810817400e+01 
5.496662481637e+01 3.291469158711e+01 
5.504317182244e+01 3.292804749356e+01 
5.508110863879e+01 3.291462919491e+01 
5.515425535942e+01 3.292798752463e+01 
5.519444762152e+01 3.291456753567e+01 
5.526422806006e+01 3.292792825802e+01 
5.530665321367e+01 3.291450659986e+01 
5.537310103410e+01 3.292786968466e+01 
5.541773675066e+01 3.291444637815e+01 
5.548088527914e+01 3.292781179562e+01 
5.552770945130e+01 3.291438686130e+01 
5.558759168034e+01 3.292775458209e+01 
5.563658242533e+01 3.291432804021e+01 
5.569323101780e+01 3.292769803539e+01 
5.574436667037e+01 3.291426990594e+01 
5.579781396348e+01 3.292764214698e+01 
5.585107307157e+01 3.291421244965e+01 
5.590135107814e+01 3.292758690841e+01 
5.595671240903e+01 3.291415566263e+01 
5.600385282138e+01 3.292753231139e+01 
5.606129535471e+01 3.291409953632e+01 
5.610532954841e+01 3.292747834773e+01 
5.616483246937e+01 3.291404406225e+01 
5.620579150699e+01 3.292742500934e+01 
5.626733421261e+01 3.291398923210e+01 
5.630524884733e+01 3.292737228828e+01 
5.636881093964e+01 3.291393503765e+01 
5.640371161623e+01 3.292732017670e+01 
5.646927289822e+01 3.291388147080e+01 
5.650118975657e+01 3.292726866686e+01 
5.656873023856e+01 3.291382852358e+01 
5.659769311456e+01 3.292721775116e+01 
5.666719300746e+01 3.291377618811e+01 
5.669323143903e+01 3.292716742207e+01 
5.676467114780e+01 3.291372445664e+01 
5.678781438085e+01 3.292711767218e+01 
5.686117450579e+01 3.291367332154e+01 
5.688145149221e+01 3.292706849420e+01 
5.695671283026e+01 3.291362277525e+01 
5.697415223123e+01 3.292701988092e+01 
5.705129577208e+01 3.291357281036e+01 
5.706592596380e+01 3.292697182524e+01 
5.714493288344e+01 3.291352341953e+01 
5.715678196027e+01 3.292692432018e+01 
5.723763362246e+01 3.291347459555e+01 
5.724672939731e+01 3.292687735882e+01 
5.732940735504e+01 3.291342633129e+01 
5.733577735977e+01 3.292683093436e+01 
5.742026335150e+01 3.291337861974e+01 
5.742393484254e+01 3.292678504011e+01 
5.751021078854e+01 3.291333145398e+01 
5.751121074969e+01 3.292673966943e+01 
5.759761389636e+01 3.292669481581e+01 
5.759925875100e+01 3.291328482717e+01 
5.768315301307e+01 3.292665047283e+01 
5.768741623377e+01 3.291323873260e+01 
5.776783673960e+01 3.292660663413e+01 
5.777469214092e+01 3.291319316363e+01 
5.785167362685e+01 3.292656329346e+01 
5.786109528759e+01 3.291314811371e+01 
5.793467214378e+01 3.292652044466e+01 
5.794663440430e+01 3.291310357639e+01 
5.801684067642e+01 3.292647808164e+01 
5.803131813083e+01 3.291305954531e+01 
5.809818752436e+01 3.292643619841e+01 
5.811515501809e+01 3.291301601420e+01 
5.817872090507e+01 3.292639478905e+01 
5.819815353501e+01 3.291297297688e+01 
5.825844895292e+01 3.292635384772e+01 
5.828032206765e+01 3.291293042723e+01 
5.833737971823e+01 3.292631336868e+01 
5.836166891559e+01 3.291288835924e+01 
5.841552117414e+01 3.292627334625e+01 
5.844220229631e+01 3.291284676699e+01 
5.849288121556e+01 3.292623377483e+01 
5.852193034415e+01 3.291280564461e+01 
5.856946765815e+01 3.292619464890e+01 
5.860086110946e+01 3.291276498633e+01 
5.864528823726e+01 3.292615596302e+01 
5.867900256537e+01 3.291272478646e+01 
5.872035060958e+01 3.292611771181e+01 
5.875636260679e+01 3.291268503939e+01 
5.879466235724e+01 3.292607988997e+01 
5.883294904938e+01 3.291264573958e+01 
5.886823098935e+01 3.292604249229e+01 
5.890876962850e+01 3.291260688156e+01 
5.898383200082e+01 3.291256845994e+01 
5.905814374848e+01 3.291253046941e+01 
5.913171238058e+01 3.291249290473e+01 
