 TITLE = "Profiles along polylines"
 VARIABLES = "DIST" "HEAD" 
 ZONE T="TIME=0.000000000000e+00"
2.599842986053e+01 0.000000000000e+00 
2.642126280480e+01 0.000000000000e+00 
2.683986742194e+01 0.000000000000e+00 
2.725428599181e+01 0.000000000000e+00 
2.766456037583e+01 0.000000000000e+00 
2.807073201749e+01 0.000000000000e+00 
2.847284194291e+01 0.000000000000e+00 
2.887093076916e+01 0.000000000000e+00 
2.926503870717e+01 0.000000000000e+00 
2.965520556465e+01 0.000000000000e+00 
3.004147075151e+01 0.000000000000e+00 
3.042387328781e+01 0.000000000000e+00 
3.080245179845e+01 0.000000000000e+00 
3.117724452379e+01 0.000000000000e+00 
3.154828932194e+01 0.000000000000e+00 
3.191562367131e+01 0.000000000000e+00 
3.227928467807e+01 0.000000000000e+00 
3.263930907325e+01 0.000000000000e+00 
3.299573322536e+01 0.000000000000e+00 
3.334859313722e+01 0.000000000000e+00 
3.369792445070e+01 0.000000000000e+00 
3.404376245119e+01 0.000000000000e+00 
3.438614206962e+01 0.000000000000e+00 
3.472509789207e+01 0.000000000000e+00 
3.506066415620e+01 0.000000000000e+00 
3.539287475831e+01 0.000000000000e+00 
3.572176325479e+01 0.000000000000e+00 
3.604736286645e+01 0.000000000000e+00 
3.636970648243e+01 0.000000000000e+00 
3.668882666178e+01 0.000000000000e+00 
3.700475563990e+01 0.000000000000e+00 
3.731752532725e+01 0.000000000000e+00 
3.762716731844e+01 0.000000000000e+00 
3.793371289066e+01 0.000000000000e+00 
3.823719300486e+01 0.000000000000e+00 
3.853763831723e+01 0.000000000000e+00 
3.883507917744e+01 0.000000000000e+00 
3.912954562963e+01 0.000000000000e+00 
3.942106741841e+01 0.000000000000e+00 
3.970967398966e+01 0.000000000000e+00 
3.999539449391e+01 0.000000000000e+00 
4.027825779214e+01 0.000000000000e+00 
4.055829245641e+01 0.000000000000e+00 
4.083552677305e+01 0.000000000000e+00 
4.110998874827e+01 0.000000000000e+00 
4.138170610600e+01 0.000000000000e+00 
4.165070629091e+01 0.000000000000e+00 
4.191701647394e+01 0.000000000000e+00 
4.218066355255e+01 0.000000000000e+00 
4.244167415880e+01 0.000000000000e+00 
4.270007465939e+01 0.000000000000e+00 
4.295589115582e+01 0.000000000000e+00 
4.320914948702e+01 0.000000000000e+00 
4.345987523461e+01 0.000000000000e+00 
4.370809372537e+01 0.000000000000e+00 
4.395383003121e+01 0.000000000000e+00 
4.419710897414e+01 0.000000000000e+00 
4.443795512875e+01 0.000000000000e+00 
4.467639282183e+01 0.000000000000e+00 
4.491244613744e+01 0.000000000000e+00 
4.514613891899e+01 0.000000000000e+00 
4.537749477156e+01 0.000000000000e+00 
4.560653706658e+01 0.000000000000e+00 
4.583328893874e+01 0.000000000000e+00 
4.605777329325e+01 0.000000000000e+00 
4.628001280525e+01 0.000000000000e+00 
4.650002992177e+01 0.000000000000e+00 
4.671784686627e+01 0.000000000000e+00 
4.693348564052e+01 0.000000000000e+00 
4.714696802638e+01 0.000000000000e+00 
4.735831558760e+01 0.000000000000e+00 
4.756754967421e+01 0.000000000000e+00 
4.777469142149e+01 0.000000000000e+00 
4.797976175172e+01 0.000000000000e+00 
4.818278137841e+01 0.000000000000e+00 
4.838377080780e+01 0.000000000000e+00 
4.858275034307e+01 0.000000000000e+00 
4.877974008310e+01 0.000000000000e+00 
4.897475992662e+01 0.000000000000e+00 
4.916782957360e+01 0.000000000000e+00 
4.935896852402e+01 0.000000000000e+00 
4.954819608421e+01 0.000000000000e+00 
4.973553136845e+01 0.000000000000e+00 
4.992099330005e+01 0.000000000000e+00 
5.010460061252e+01 0.000000000000e+00 
5.028637185079e+01 0.000000000000e+00 
5.046632537498e+01 0.000000000000e+00 
5.064447936403e+01 0.000000000000e+00 
5.082085181420e+01 0.000000000000e+00 
5.099546054000e+01 0.000000000000e+00 
5.116832317792e+01 0.000000000000e+00 
5.133945718988e+01 0.000000000000e+00 
5.150887986155e+01 0.000000000000e+00 
5.167660830587e+01 0.000000000000e+00 
5.184265946649e+01 0.000000000000e+00 
5.200705011592e+01 0.000000000000e+00 
5.216979685894e+01 0.000000000000e+00 
5.233091613337e+01 0.000000000000e+00 
5.249042421599e+01 0.000000000000e+00 
5.264833721788e+01 0.000000000000e+00 
5.280467108786e+01 0.000000000000e+00 
5.295944162076e+01 0.000000000000e+00 
5.311266445024e+01 0.000000000000e+00 
5.326435505188e+01 0.000000000000e+00 
5.341452874641e+01 0.000000000000e+00 
5.356320070272e+01 0.000000000000e+00 
5.371038593834e+01 0.000000000000e+00 
5.385609932246e+01 0.000000000000e+00 
5.400035557363e+01 0.000000000000e+00 
5.414316926024e+01 0.000000000000e+00 
5.428455481127e+01 0.000000000000e+00 
5.442452650862e+01 0.000000000000e+00 
5.456309848753e+01 0.000000000000e+00 
5.470028474727e+01 0.000000000000e+00 
5.483609914597e+01 0.000000000000e+00 
5.497055539835e+01 0.000000000000e+00 
5.510366708631e+01 0.000000000000e+00 
5.523544765897e+01 0.000000000000e+00 
5.536591042756e+01 0.000000000000e+00 
5.549506856816e+01 0.000000000000e+00 
5.562293512695e+01 0.000000000000e+00 
5.574952302022e+01 0.000000000000e+00 
5.587484503435e+01 0.000000000000e+00 
5.599891382844e+01 0.000000000000e+00 
5.612174193419e+01 0.000000000000e+00 
5.624334175845e+01 0.000000000000e+00 
5.636372558575e+01 0.000000000000e+00 
5.648290557548e+01 0.000000000000e+00 
5.660089376443e+01 0.000000000000e+00 
5.671770207179e+01 0.000000000000e+00 
5.683334229632e+01 0.000000000000e+00 
5.694782611874e+01 0.000000000000e+00 
5.706116510147e+01 0.000000000000e+00 
5.717337069363e+01 0.000000000000e+00 
5.728445423061e+01 0.000000000000e+00 
5.739442693125e+01 0.000000000000e+00 
5.750329990528e+01 0.000000000000e+00 
5.761108415033e+01 0.000000000000e+00 
5.771779055152e+01 0.000000000000e+00 
5.782342988899e+01 0.000000000000e+00 
5.792801283466e+01 0.000000000000e+00 
5.803154994932e+01 0.000000000000e+00 
5.813405169256e+01 0.000000000000e+00 
5.823552841960e+01 0.000000000000e+00 
5.833599037817e+01 0.000000000000e+00 
5.843544771852e+01 0.000000000000e+00 
5.853391048741e+01 0.000000000000e+00 
5.863138862776e+01 0.000000000000e+00 
5.872789198574e+01 0.000000000000e+00 
5.882343031022e+01 0.000000000000e+00 
5.891801325203e+01 0.000000000000e+00 
5.901165036339e+01 0.000000000000e+00 
5.910435110241e+01 0.000000000000e+00 
5.919612483499e+01 0.000000000000e+00 
5.928698083146e+01 0.000000000000e+00 
5.937692826849e+01 0.000000000000e+00 
5.946597623095e+01 0.000000000000e+00 
5.955413371372e+01 0.000000000000e+00 
5.964140962088e+01 0.000000000000e+00 
5.972781276755e+01 0.000000000000e+00 
5.981335188425e+01 0.000000000000e+00 
5.989803561078e+01 0.000000000000e+00 
5.998187249804e+01 0.000000000000e+00 
6.006487101497e+01 0.000000000000e+00 
6.014703954761e+01 0.000000000000e+00 
6.022838639554e+01 0.000000000000e+00 
6.030891977626e+01 0.000000000000e+00 
6.038864782411e+01 0.000000000000e+00 
6.046757858941e+01 0.000000000000e+00 
6.054572004532e+01 0.000000000000e+00 
6.062308008674e+01 0.000000000000e+00 
6.069966652933e+01 0.000000000000e+00 
6.077548710845e+01 0.000000000000e+00 
6.085054948077e+01 0.000000000000e+00 
6.092486122843e+01 0.000000000000e+00 
6.099842986053e+01 0.000000000000e+00 
 TITLE = "Profiles along polylines"
 VARIABLES = "DIST" "HEAD" 
 ZONE T="TIME=1.797693134862e+308"
2.599842986053e+01 3.283836497641e+01 
2.642126280480e+01 3.283801821357e+01 
2.683986742194e+01 3.283767640254e+01 
2.725428599181e+01 3.283733946423e+01 
2.766456037583e+01 3.283700732096e+01 
2.807073201749e+01 3.283667989639e+01 
2.847284194291e+01 3.283635711550e+01 
2.887093076916e+01 3.283603890461e+01 
2.926503870717e+01 3.283572519128e+01 
2.965520556465e+01 3.283541590437e+01 
3.004147075151e+01 3.283511097395e+01 
3.042387328781e+01 3.283481033131e+01 
3.080245179845e+01 3.283451390894e+01 
3.117724452379e+01 3.283422164048e+01 
3.154828932194e+01 3.283393346073e+01 
3.191562367131e+01 3.283364930561e+01 
3.227928467807e+01 3.283336911215e+01 
3.263930907325e+01 3.283309281845e+01 
3.299573322536e+01 3.283282036370e+01 
3.334859313722e+01 3.283255168811e+01 
3.369792445070e+01 3.283228673292e+01 
3.404376245119e+01 3.283202544038e+01 
3.438614206962e+01 3.283176775374e+01 
3.472509789207e+01 3.283151361719e+01 
3.506066415620e+01 3.283126297590e+01 
3.539287475831e+01 3.283101577596e+01 
3.572176325479e+01 3.283077196437e+01 
3.604736286645e+01 3.283053148906e+01 
3.636970648243e+01 3.283029429881e+01 
3.668882666178e+01 3.283006034328e+01 
3.700475563990e+01 3.282982957300e+01 
3.731752532725e+01 3.282960193930e+01 
3.762716731844e+01 3.282937739436e+01 
3.793371289066e+01 3.282915589115e+01 
3.823719300486e+01 3.282893738345e+01 
3.853763831723e+01 3.282872182580e+01 
3.883507917744e+01 3.282850917351e+01 
3.912954562963e+01 3.282829938263e+01 
3.942106741841e+01 3.282809240997e+01 
3.970967398966e+01 3.282788821302e+01 
3.999539449391e+01 3.282768675003e+01 
4.027825779214e+01 3.282748797990e+01 
4.055829245641e+01 3.282729186226e+01 
4.083552677305e+01 3.282709835736e+01 
4.110998874827e+01 3.282690742616e+01 
4.138170610600e+01 3.282671903022e+01 
4.165070629091e+01 3.282653313178e+01 
4.191701647394e+01 3.282634969367e+01 
4.218066355255e+01 3.282616867937e+01 
4.244167415880e+01 3.282599005292e+01 
4.270007465939e+01 3.282581377898e+01 
4.295589115582e+01 3.282563982278e+01 
4.320914948702e+01 3.282546815014e+01 
4.345987523461e+01 3.282529872740e+01 
4.370809372537e+01 3.282513152150e+01 
4.395383003121e+01 3.282496649988e+01 
4.419710897414e+01 3.282480363054e+01 
4.443795512875e+01 3.282464288198e+01 
4.467639282183e+01 3.282448422324e+01 
4.491244613744e+01 3.282432762383e+01 
4.514613891899e+01 3.282417305377e+01 
4.537749477156e+01 3.282402048359e+01 
4.560653706658e+01 3.282386988425e+01 
4.583328893874e+01 3.282372122721e+01 
4.605777329325e+01 3.282357448440e+01 
4.628001280525e+01 3.282342962817e+01 
4.650002992177e+01 3.282328663134e+01 
4.671784686627e+01 3.282314546715e+01 
4.693348564052e+01 3.282300610930e+01 
4.714696802638e+01 3.282286853187e+01 
4.735831558760e+01 3.282273270938e+01 
4.756754967421e+01 3.282259861676e+01 
4.777469142149e+01 3.282246622932e+01 
4.797976175172e+01 3.282233552279e+01 
4.818278137841e+01 3.282220647325e+01 
4.838377080780e+01 3.282207905720e+01 
4.858275034307e+01 3.282195325149e+01 
4.877974008310e+01 3.282182903334e+01 
4.897475992662e+01 3.282170638033e+01 
4.916782957360e+01 3.282158527039e+01 
4.935896852402e+01 3.282146568181e+01 
4.954819608421e+01 3.282134759321e+01 
4.973553136845e+01 3.282123098356e+01 
4.992099330005e+01 3.282111583214e+01 
5.010460061252e+01 3.282100211857e+01 
5.028637185079e+01 3.282088982279e+01 
5.046632537498e+01 3.282077892504e+01 
5.064447936403e+01 3.282066940588e+01 
5.082085181420e+01 3.282056124616e+01 
5.099546054000e+01 3.282045442705e+01 
5.116832317792e+01 3.282034892999e+01 
5.133945718988e+01 3.282024473672e+01 
5.150887986155e+01 3.282014182926e+01 
5.167660830587e+01 3.282004018990e+01 
5.184265946649e+01 3.281993980122e+01 
5.200705011592e+01 3.281984064606e+01 
5.216979685894e+01 3.281974270751e+01 
5.233091613337e+01 3.281964596894e+01 
5.249042421599e+01 3.281955041397e+01 
5.264833721788e+01 3.281945602646e+01 
5.280467108786e+01 3.281936279053e+01 
5.295944162076e+01 3.281927069054e+01 
5.311266445024e+01 3.281917971108e+01 
5.326435505188e+01 3.281908983698e+01 
5.341452874641e+01 3.281900105331e+01 
5.356320070272e+01 3.281891334534e+01 
5.371038593834e+01 3.281882669860e+01 
5.385609932246e+01 3.281874109880e+01 
5.400035557363e+01 3.281865653189e+01 
5.414316926024e+01 3.281857298403e+01 
5.428455481127e+01 3.281849044158e+01 
5.442452650862e+01 3.281840889111e+01 
5.456309848753e+01 3.281832831938e+01 
5.470028474727e+01 3.281824871338e+01 
5.483609914597e+01 3.281817006025e+01 
5.497055539835e+01 3.281809234735e+01 
5.510366708631e+01 3.281801556224e+01 
5.523544765897e+01 3.281793969262e+01 
5.536591042756e+01 3.281786472642e+01 
5.549506856816e+01 3.281779065173e+01 
5.562293512695e+01 3.281771745680e+01 
5.574952302022e+01 3.281764513007e+01 
5.587484503435e+01 3.281757366017e+01 
5.599891382844e+01 3.281750303586e+01 
5.612174193419e+01 3.281743324608e+01 
5.624334175845e+01 3.281736427994e+01 
5.636372558575e+01 3.281729612670e+01 
5.648290557548e+01 3.281722877579e+01 
5.660089376443e+01 3.281716221678e+01 
5.671770207179e+01 3.281709643939e+01 
5.683334229632e+01 3.281703143350e+01 
5.694782611874e+01 3.281696718914e+01 
5.706116510147e+01 3.281690369648e+01 
5.717337069363e+01 3.281684094582e+01 
5.728445423061e+01 3.281677892762e+01 
5.739442693125e+01 3.281671763246e+01 
5.750329990528e+01 3.281665705107e+01 
5.761108415033e+01 3.281659717431e+01 
5.771779055152e+01 3.281653799316e+01 
5.782342988899e+01 3.281647949874e+01 
5.792801283466e+01 3.281642168231e+01 
5.803154994932e+01 3.281636453522e+01 
5.813405169256e+01 3.281630804897e+01 
5.823552841960e+01 3.281625221518e+01 
5.833599037817e+01 3.281619702558e+01 
5.843544771852e+01 3.281614247202e+01 
5.853391048741e+01 3.281608854646e+01 
5.863138862776e+01 3.281603524099e+01 
5.872789198574e+01 3.281598254780e+01 
5.882343031022e+01 3.281593045919e+01 
5.891801325203e+01 3.281587896756e+01 
5.901165036339e+01 3.281582806544e+01 
5.910435110241e+01 3.281577774545e+01 
5.919612483499e+01 3.281572800031e+01 
5.928698083146e+01 3.281567882285e+01 
5.937692826849e+01 3.281563020599e+01 
5.946597623095e+01 3.281558214275e+01 
5.955413371372e+01 3.281553462627e+01 
5.964140962088e+01 3.281548764976e+01 
5.972781276755e+01 3.281544120653e+01 
5.981335188425e+01 3.281539528998e+01 
5.989803561078e+01 3.281534989361e+01 
5.998187249804e+01 3.281530501101e+01 
6.006487101497e+01 3.281526063583e+01 
6.014703954761e+01 3.281521676186e+01 
6.022838639554e+01 3.281517338292e+01 
6.030891977626e+01 3.281513049296e+01 
6.038864782411e+01 3.281508808597e+01 
6.046757858941e+01 3.281504615607e+01 
6.054572004532e+01 3.281500469742e+01 
6.062308008674e+01 3.281496370427e+01 
6.069966652933e+01 3.281492317096e+01 
6.077548710845e+01 3.281488309190e+01 
6.085054948077e+01 3.281484346157e+01 
6.092486122843e+01 3.281480427453e+01 
6.099842986053e+01 3.281476552541e+01 
