 TITLE = "Profiles along polylines"
 VARIABLES = "DIST" "HEAD" 
 ZONE T="TIME=0.000000000000e+00"
7.225530411152e+00 0.000000000000e+00 
7.269046829662e+00 0.000000000000e+00 
7.648363355418e+00 0.000000000000e+00 
7.691879773928e+00 0.000000000000e+00 
8.066967972558e+00 0.000000000000e+00 
8.110484391068e+00 0.000000000000e+00 
8.481386542428e+00 0.000000000000e+00 
8.524902960938e+00 0.000000000000e+00 
8.891660926448e+00 0.000000000000e+00 
8.935177344957e+00 0.000000000000e+00 
9.297832568101e+00 0.000000000000e+00 
9.341348986611e+00 0.000000000000e+00 
9.699942493523e+00 0.000000000000e+00 
9.743458912033e+00 0.000000000000e+00 
1.009803131977e+01 0.000000000000e+00 
1.014154773828e+01 0.000000000000e+00 
1.049213925779e+01 0.000000000000e+00 
1.053565567630e+01 0.000000000000e+00 
1.088230611527e+01 0.000000000000e+00 
1.092582253378e+01 0.000000000000e+00 
1.126857130213e+01 0.000000000000e+00 
1.131208772064e+01 0.000000000000e+00 
1.165097383842e+01 0.000000000000e+00 
1.169449025693e+01 0.000000000000e+00 
1.202955234906e+01 0.000000000000e+00 
1.207306876757e+01 0.000000000000e+00 
1.240434507440e+01 0.000000000000e+00 
1.244786149291e+01 0.000000000000e+00 
1.277538987255e+01 0.000000000000e+00 
1.281890629106e+01 0.000000000000e+00 
1.314272422192e+01 0.000000000000e+00 
1.318624064043e+01 0.000000000000e+00 
1.350638522868e+01 0.000000000000e+00 
1.354990164719e+01 0.000000000000e+00 
1.386640962386e+01 0.000000000000e+00 
1.390992604237e+01 0.000000000000e+00 
1.422283377597e+01 0.000000000000e+00 
1.426635019448e+01 0.000000000000e+00 
1.457569368783e+01 0.000000000000e+00 
1.461921010634e+01 0.000000000000e+00 
1.492502500130e+01 0.000000000000e+00 
1.496854141981e+01 0.000000000000e+00 
1.527086300179e+01 0.000000000000e+00 
1.531437942030e+01 0.000000000000e+00 
1.561324262023e+01 0.000000000000e+00 
1.565675903874e+01 0.000000000000e+00 
1.595219844268e+01 0.000000000000e+00 
1.599571486119e+01 0.000000000000e+00 
1.628776470681e+01 0.000000000000e+00 
1.633128112532e+01 0.000000000000e+00 
1.661997530892e+01 0.000000000000e+00 
1.666349172743e+01 0.000000000000e+00 
1.694886380540e+01 0.000000000000e+00 
1.699238022391e+01 0.000000000000e+00 
1.727446341705e+01 0.000000000000e+00 
1.731797983556e+01 0.000000000000e+00 
1.759680703304e+01 0.000000000000e+00 
1.764032345155e+01 0.000000000000e+00 
1.791592721239e+01 0.000000000000e+00 
1.795944363090e+01 0.000000000000e+00 
1.823185619050e+01 0.000000000000e+00 
1.827537260901e+01 0.000000000000e+00 
1.854462587785e+01 0.000000000000e+00 
1.858814229636e+01 0.000000000000e+00 
1.885426786904e+01 0.000000000000e+00 
1.889778428755e+01 0.000000000000e+00 
1.916081344126e+01 0.000000000000e+00 
1.920432985977e+01 0.000000000000e+00 
1.946429355546e+01 0.000000000000e+00 
1.950780997397e+01 0.000000000000e+00 
1.976473886783e+01 0.000000000000e+00 
1.980825528634e+01 0.000000000000e+00 
2.006217972804e+01 0.000000000000e+00 
2.010569614655e+01 0.000000000000e+00 
2.035664618023e+01 0.000000000000e+00 
2.040016259874e+01 0.000000000000e+00 
2.064816796900e+01 0.000000000000e+00 
2.069168438751e+01 0.000000000000e+00 
2.093677454026e+01 0.000000000000e+00 
2.098029095877e+01 0.000000000000e+00 
2.122249504450e+01 0.000000000000e+00 
2.126601146301e+01 0.000000000000e+00 
2.150535834273e+01 0.000000000000e+00 
2.154887476124e+01 0.000000000000e+00 
2.178539300701e+01 0.000000000000e+00 
2.182890942552e+01 0.000000000000e+00 
2.206262732364e+01 0.000000000000e+00 
2.210614374215e+01 0.000000000000e+00 
2.233708929886e+01 0.000000000000e+00 
2.238060571737e+01 0.000000000000e+00 
2.260880665659e+01 0.000000000000e+00 
2.265232307510e+01 0.000000000000e+00 
2.287780684150e+01 0.000000000000e+00 
2.292132326001e+01 0.000000000000e+00 
2.314411702454e+01 0.000000000000e+00 
2.318763344305e+01 0.000000000000e+00 
2.340776410315e+01 0.000000000000e+00 
2.345128052165e+01 0.000000000000e+00 
2.366877470940e+01 0.000000000000e+00 
2.371229112791e+01 0.000000000000e+00 
2.392717520998e+01 0.000000000000e+00 
2.397069162849e+01 0.000000000000e+00 
2.418299170641e+01 0.000000000000e+00 
2.422650812492e+01 0.000000000000e+00 
2.443625003761e+01 0.000000000000e+00 
2.447976645612e+01 0.000000000000e+00 
2.468697578520e+01 0.000000000000e+00 
2.473049220371e+01 0.000000000000e+00 
2.493519427596e+01 0.000000000000e+00 
2.497871069447e+01 0.000000000000e+00 
2.518093058180e+01 0.000000000000e+00 
2.522444700031e+01 0.000000000000e+00 
2.542420952473e+01 0.000000000000e+00 
2.546772594324e+01 0.000000000000e+00 
2.566505567934e+01 0.000000000000e+00 
2.570857209785e+01 0.000000000000e+00 
2.590349337243e+01 0.000000000000e+00 
2.594700979094e+01 0.000000000000e+00 
2.613954668804e+01 0.000000000000e+00 
2.618306310655e+01 0.000000000000e+00 
2.637323946958e+01 0.000000000000e+00 
2.641675588809e+01 0.000000000000e+00 
2.660459532215e+01 0.000000000000e+00 
2.664811174066e+01 0.000000000000e+00 
2.683363761718e+01 0.000000000000e+00 
2.687715403569e+01 0.000000000000e+00 
2.706038948933e+01 0.000000000000e+00 
2.710390590784e+01 0.000000000000e+00 
2.728487384385e+01 0.000000000000e+00 
2.732839026236e+01 0.000000000000e+00 
2.750711335584e+01 0.000000000000e+00 
2.755062977435e+01 0.000000000000e+00 
2.772713047237e+01 0.000000000000e+00 
2.777064689088e+01 0.000000000000e+00 
2.794494741687e+01 0.000000000000e+00 
2.798846383538e+01 0.000000000000e+00 
2.816058619112e+01 0.000000000000e+00 
2.820410260963e+01 0.000000000000e+00 
2.837406857698e+01 0.000000000000e+00 
2.841758499549e+01 0.000000000000e+00 
2.858541613820e+01 0.000000000000e+00 
2.862893255671e+01 0.000000000000e+00 
2.879465022481e+01 0.000000000000e+00 
2.883816664332e+01 0.000000000000e+00 
2.900179197209e+01 0.000000000000e+00 
2.904530839060e+01 0.000000000000e+00 
2.920686230232e+01 0.000000000000e+00 
2.925037872083e+01 0.000000000000e+00 
2.940988192901e+01 0.000000000000e+00 
2.945339834752e+01 0.000000000000e+00 
2.961087135840e+01 0.000000000000e+00 
2.965438777691e+01 0.000000000000e+00 
2.980985089367e+01 0.000000000000e+00 
2.985336731218e+01 0.000000000000e+00 
3.000684063370e+01 0.000000000000e+00 
3.005035705221e+01 0.000000000000e+00 
3.020186047723e+01 0.000000000000e+00 
3.024537689574e+01 0.000000000000e+00 
3.039493012420e+01 0.000000000000e+00 
3.043844654271e+01 0.000000000000e+00 
3.058606907463e+01 0.000000000000e+00 
3.062958549313e+01 0.000000000000e+00 
3.077529663481e+01 0.000000000000e+00 
3.081881305332e+01 0.000000000000e+00 
3.096263191906e+01 0.000000000000e+00 
3.100614833757e+01 0.000000000000e+00 
3.114809385065e+01 0.000000000000e+00 
3.119161026916e+01 0.000000000000e+00 
3.133170116312e+01 0.000000000000e+00 
3.137521758163e+01 0.000000000000e+00 
3.151347240140e+01 0.000000000000e+00 
3.155698881991e+01 0.000000000000e+00 
3.169342592558e+01 0.000000000000e+00 
3.173694234409e+01 0.000000000000e+00 
3.187157991464e+01 0.000000000000e+00 
3.191509633315e+01 0.000000000000e+00 
3.204795236480e+01 0.000000000000e+00 
3.209146878331e+01 0.000000000000e+00 
3.222256109061e+01 0.000000000000e+00 
3.226607750912e+01 0.000000000000e+00 
3.239542372853e+01 0.000000000000e+00 
3.243894014704e+01 0.000000000000e+00 
3.256655774048e+01 0.000000000000e+00 
3.261007415899e+01 0.000000000000e+00 
3.273598041215e+01 0.000000000000e+00 
3.277949683066e+01 0.000000000000e+00 
3.290370885648e+01 0.000000000000e+00 
3.294722527499e+01 0.000000000000e+00 
3.306976001710e+01 0.000000000000e+00 
3.311327643561e+01 0.000000000000e+00 
3.323415066652e+01 0.000000000000e+00 
3.327766708503e+01 0.000000000000e+00 
3.339689740955e+01 0.000000000000e+00 
3.344041382806e+01 0.000000000000e+00 
3.355801668398e+01 0.000000000000e+00 
3.360153310249e+01 0.000000000000e+00 
3.371752476660e+01 0.000000000000e+00 
3.376104118511e+01 0.000000000000e+00 
3.387543776849e+01 0.000000000000e+00 
3.391895418700e+01 0.000000000000e+00 
3.403177163846e+01 0.000000000000e+00 
3.407528805697e+01 0.000000000000e+00 
3.418654217137e+01 0.000000000000e+00 
3.423005858988e+01 0.000000000000e+00 
3.433976500084e+01 0.000000000000e+00 
3.438328141935e+01 0.000000000000e+00 
3.449145560249e+01 0.000000000000e+00 
3.453497202100e+01 0.000000000000e+00 
3.464162929701e+01 0.000000000000e+00 
3.468514571552e+01 0.000000000000e+00 
3.479030125333e+01 0.000000000000e+00 
3.483381767184e+01 0.000000000000e+00 
3.493748648895e+01 0.000000000000e+00 
3.498100290746e+01 0.000000000000e+00 
3.508319987307e+01 0.000000000000e+00 
3.512671629158e+01 0.000000000000e+00 
3.522745612424e+01 0.000000000000e+00 
3.527097254275e+01 0.000000000000e+00 
3.537026981085e+01 0.000000000000e+00 
3.541378622936e+01 0.000000000000e+00 
3.551165536188e+01 0.000000000000e+00 
3.555517178039e+01 0.000000000000e+00 
3.565162705923e+01 0.000000000000e+00 
3.569514347774e+01 0.000000000000e+00 
3.579019903814e+01 0.000000000000e+00 
3.583371545665e+01 0.000000000000e+00 
3.592738529788e+01 0.000000000000e+00 
3.597090171639e+01 0.000000000000e+00 
3.606319969658e+01 0.000000000000e+00 
3.610671611509e+01 0.000000000000e+00 
3.619765594896e+01 0.000000000000e+00 
3.624117236747e+01 0.000000000000e+00 
3.633076763692e+01 0.000000000000e+00 
3.637428405543e+01 0.000000000000e+00 
3.646254820958e+01 0.000000000000e+00 
3.650606462809e+01 0.000000000000e+00 
3.659301097818e+01 0.000000000000e+00 
3.663652739669e+01 0.000000000000e+00 
3.672216911877e+01 0.000000000000e+00 
3.676568553728e+01 0.000000000000e+00 
3.685003567757e+01 0.000000000000e+00 
3.689355209607e+01 0.000000000000e+00 
3.697662357083e+01 0.000000000000e+00 
3.702013998934e+01 0.000000000000e+00 
3.710194558497e+01 0.000000000000e+00 
3.714546200348e+01 0.000000000000e+00 
3.722601437906e+01 0.000000000000e+00 
3.726953079757e+01 0.000000000000e+00 
3.734884248480e+01 0.000000000000e+00 
3.739235890331e+01 0.000000000000e+00 
3.747044230906e+01 0.000000000000e+00 
3.751395872757e+01 0.000000000000e+00 
3.759082613636e+01 0.000000000000e+00 
3.763434255487e+01 0.000000000000e+00 
3.771000612609e+01 0.000000000000e+00 
3.775352254460e+01 0.000000000000e+00 
3.782799431504e+01 0.000000000000e+00 
3.787151073355e+01 0.000000000000e+00 
3.794480262240e+01 0.000000000000e+00 
3.798831904091e+01 0.000000000000e+00 
3.806044284693e+01 0.000000000000e+00 
3.810395926544e+01 0.000000000000e+00 
3.817492666936e+01 0.000000000000e+00 
3.821844308787e+01 0.000000000000e+00 
3.828826565209e+01 0.000000000000e+00 
3.833178207060e+01 0.000000000000e+00 
3.840047124424e+01 0.000000000000e+00 
3.844398766275e+01 0.000000000000e+00 
3.851155478122e+01 0.000000000000e+00 
3.855507119973e+01 0.000000000000e+00 
3.862152748186e+01 0.000000000000e+00 
3.866504390037e+01 0.000000000000e+00 
3.873040045590e+01 0.000000000000e+00 
3.877391687441e+01 0.000000000000e+00 
3.883818470094e+01 0.000000000000e+00 
3.888170111945e+01 0.000000000000e+00 
3.894489110214e+01 0.000000000000e+00 
3.898840752065e+01 0.000000000000e+00 
3.905053043960e+01 0.000000000000e+00 
3.909404685811e+01 0.000000000000e+00 
3.915511338528e+01 0.000000000000e+00 
3.919862980379e+01 0.000000000000e+00 
3.925865049994e+01 0.000000000000e+00 
3.930216691845e+01 0.000000000000e+00 
3.936115224318e+01 0.000000000000e+00 
3.940466866169e+01 0.000000000000e+00 
3.946262897021e+01 0.000000000000e+00 
3.950614538872e+01 0.000000000000e+00 
3.956309092879e+01 0.000000000000e+00 
3.960660734730e+01 0.000000000000e+00 
3.966254826913e+01 0.000000000000e+00 
3.970606468764e+01 0.000000000000e+00 
3.976101103803e+01 0.000000000000e+00 
3.980452745654e+01 0.000000000000e+00 
3.985848917837e+01 0.000000000000e+00 
3.990200559688e+01 0.000000000000e+00 
3.995499253636e+01 0.000000000000e+00 
3.999850895487e+01 0.000000000000e+00 
4.005053086083e+01 0.000000000000e+00 
4.009404727934e+01 0.000000000000e+00 
4.014511380265e+01 0.000000000000e+00 
4.018863022116e+01 0.000000000000e+00 
4.023875091401e+01 0.000000000000e+00 
4.028226733252e+01 0.000000000000e+00 
4.033145165303e+01 0.000000000000e+00 
4.037496807154e+01 0.000000000000e+00 
4.042322538561e+01 0.000000000000e+00 
4.046674180412e+01 0.000000000000e+00 
4.051408138207e+01 0.000000000000e+00 
4.055759780058e+01 0.000000000000e+00 
4.060402881911e+01 0.000000000000e+00 
4.064754523762e+01 0.000000000000e+00 
4.069307678157e+01 0.000000000000e+00 
4.073659320008e+01 0.000000000000e+00 
4.078123426434e+01 0.000000000000e+00 
4.082475068285e+01 0.000000000000e+00 
4.086851017149e+01 0.000000000000e+00 
4.091202659000e+01 0.000000000000e+00 
4.095491331817e+01 0.000000000000e+00 
4.099842973668e+01 0.000000000000e+00 
4.104045243487e+01 0.000000000000e+00 
4.108396885338e+01 0.000000000000e+00 
4.112513616140e+01 0.000000000000e+00 
4.116865257991e+01 0.000000000000e+00 
4.120897304866e+01 0.000000000000e+00 
4.125248946717e+01 0.000000000000e+00 
4.129197156559e+01 0.000000000000e+00 
4.133548798410e+01 0.000000000000e+00 
4.137414009822e+01 0.000000000000e+00 
4.141765651673e+01 0.000000000000e+00 
4.145548694616e+01 0.000000000000e+00 
4.149900336467e+01 0.000000000000e+00 
4.153602032688e+01 0.000000000000e+00 
4.157953674539e+01 0.000000000000e+00 
4.161574837472e+01 0.000000000000e+00 
4.165926479323e+01 0.000000000000e+00 
4.169467914003e+01 0.000000000000e+00 
4.173819555854e+01 0.000000000000e+00 
4.177282059594e+01 0.000000000000e+00 
4.181633701445e+01 0.000000000000e+00 
4.185018063736e+01 0.000000000000e+00 
4.189369705587e+01 0.000000000000e+00 
4.192676707995e+01 0.000000000000e+00 
4.197028349846e+01 0.000000000000e+00 
4.200258765907e+01 0.000000000000e+00 
4.204610407758e+01 0.000000000000e+00 
4.207765003139e+01 0.000000000000e+00 
4.212116644990e+01 0.000000000000e+00 
4.215196177905e+01 0.000000000000e+00 
4.219547819756e+01 0.000000000000e+00 
4.222553041115e+01 0.000000000000e+00 
4.226904682966e+01 0.000000000000e+00 
 TITLE = "Profiles along polylines"
 VARIABLES = "DIST" "HEAD" 
 ZONE T="TIME=1.797693134862e+308"
7.225530411152e+00 3.407639692953e+01 
7.269046829662e+00 3.407207005074e+01 
7.648363355418e+00 3.407624470308e+01 
7.691879773928e+00 3.407191766655e+01 
8.066967972558e+00 3.407609550681e+01 
8.110484391068e+00 3.407176831410e+01 
8.481386542428e+00 3.407594928064e+01 
8.524902960938e+00 3.407162193333e+01 
8.891660926448e+00 3.407580596555e+01 
8.935177344957e+00 3.407147846516e+01 
9.297832568101e+00 3.407566550357e+01 
9.341348986611e+00 3.407133785162e+01 
9.699942493523e+00 3.407552783789e+01 
9.743458912033e+00 3.407120003589e+01 
1.009803131977e+01 3.407539291283e+01 
1.014154773828e+01 3.407106496228e+01 
1.049213925779e+01 3.407526067381e+01 
1.053565567630e+01 3.407093257619e+01 
1.088230611527e+01 3.407513106738e+01 
1.092582253378e+01 3.407080282415e+01 
1.126857130213e+01 3.407500404112e+01 
1.131208772064e+01 3.407067565373e+01 
1.165097383842e+01 3.407487954366e+01 
1.169449025693e+01 3.407055101355e+01 
1.202955234906e+01 3.407475752468e+01 
1.207306876757e+01 3.407042885327e+01 
1.240434507440e+01 3.407463793484e+01 
1.244786149291e+01 3.407030912353e+01 
1.277538987255e+01 3.407452072578e+01 
1.281890629106e+01 3.407019177597e+01 
1.314272422192e+01 3.407440585012e+01 
1.318624064043e+01 3.407007676320e+01 
1.350638522868e+01 3.407429326141e+01 
1.354990164719e+01 3.406996403874e+01 
1.386640962386e+01 3.407418291414e+01 
1.390992604237e+01 3.406985355707e+01 
1.422283377597e+01 3.407407476369e+01 
1.426635019448e+01 3.406974527356e+01 
1.457569368783e+01 3.407396876633e+01 
1.461921010634e+01 3.406963914447e+01 
1.492502500130e+01 3.407386487921e+01 
1.496854141981e+01 3.406953512693e+01 
1.527086300179e+01 3.407376306033e+01 
1.531437942030e+01 3.406943317893e+01 
1.561324262023e+01 3.407366326852e+01 
1.565675903874e+01 3.406933325928e+01 
1.595219844268e+01 3.407356546344e+01 
1.599571486119e+01 3.406923532764e+01 
1.628776470681e+01 3.407346960553e+01 
1.633128112532e+01 3.406913934444e+01 
1.661997530892e+01 3.407337565604e+01 
1.666349172743e+01 3.406904527090e+01 
1.694886380540e+01 3.407328357699e+01 
1.699238022391e+01 3.406895306905e+01 
1.727446341705e+01 3.407319333115e+01 
1.731797983556e+01 3.406886270162e+01 
1.759680703304e+01 3.407310488202e+01 
1.764032345155e+01 3.406877413212e+01 
1.791592721239e+01 3.407301819385e+01 
1.795944363090e+01 3.406868732479e+01 
1.823185619050e+01 3.407293323159e+01 
1.827537260901e+01 3.406860224454e+01 
1.854462587785e+01 3.407284996088e+01 
1.858814229636e+01 3.406851885703e+01 
1.885426786904e+01 3.407276834805e+01 
1.889778428755e+01 3.406843712856e+01 
1.916081344126e+01 3.407268836010e+01 
1.920432985977e+01 3.406835702613e+01 
1.946429355546e+01 3.407260996469e+01 
1.950780997397e+01 3.406827851738e+01 
1.976473886783e+01 3.407253313012e+01 
1.980825528634e+01 3.406820157061e+01 
2.006217972804e+01 3.407245782533e+01 
2.010569614655e+01 3.406812615473e+01 
2.035664618023e+01 3.407238401986e+01 
2.040016259874e+01 3.406805223928e+01 
2.064816796900e+01 3.407231168387e+01 
2.069168438751e+01 3.406797979441e+01 
2.093677454026e+01 3.407224078811e+01 
2.098029095877e+01 3.406790879086e+01 
2.122249504450e+01 3.407217130391e+01 
2.126601146301e+01 3.406783919994e+01 
2.150535834273e+01 3.407210320318e+01 
2.154887476124e+01 3.406777099356e+01 
2.178539300701e+01 3.407203645837e+01 
2.182890942552e+01 3.406770414416e+01 
2.206262732364e+01 3.407197104251e+01 
2.210614374215e+01 3.406763862475e+01 
2.233708929886e+01 3.407190692913e+01 
2.238060571737e+01 3.406757440885e+01 
2.260880665659e+01 3.407184409230e+01 
2.265232307510e+01 3.406751147054e+01 
2.287780684150e+01 3.407178250663e+01 
2.292132326001e+01 3.406744978439e+01 
2.314411702454e+01 3.407172214720e+01 
2.318763344305e+01 3.406738932548e+01 
2.340776410315e+01 3.407166298960e+01 
2.345128052165e+01 3.406733006941e+01 
2.366877470940e+01 3.407160500992e+01 
2.371229112791e+01 3.406727199224e+01 
2.392717520998e+01 3.407154818470e+01 
2.397069162849e+01 3.406721507050e+01 
2.418299170641e+01 3.407149249097e+01 
2.422650812492e+01 3.406715928122e+01 
2.443625003761e+01 3.407143790620e+01 
2.447976645612e+01 3.406710460185e+01 
2.468697578520e+01 3.407138440832e+01 
2.473049220371e+01 3.406705101031e+01 
2.493519427596e+01 3.407133197569e+01 
2.497871069447e+01 3.406699848497e+01 
2.518093058180e+01 3.407128058711e+01 
2.522444700031e+01 3.406694700460e+01 
2.542420952473e+01 3.407123022179e+01 
2.546772594324e+01 3.406689654841e+01 
2.566505567934e+01 3.407118085937e+01 
2.570857209785e+01 3.406684709603e+01 
2.590349337243e+01 3.407113247988e+01 
2.594700979094e+01 3.406679862748e+01 
2.613954668804e+01 3.407108506376e+01 
2.618306310655e+01 3.406675112318e+01 
2.637323946958e+01 3.407103859183e+01 
2.641675588809e+01 3.406670456396e+01 
2.660459532215e+01 3.407099304529e+01 
2.664811174066e+01 3.406665893101e+01 
2.683363761718e+01 3.407094840573e+01 
2.687715403569e+01 3.406661420589e+01 
2.706038948933e+01 3.407090465508e+01 
2.710390590784e+01 3.406657037055e+01 
2.728487384385e+01 3.407086177566e+01 
2.732839026236e+01 3.406652740727e+01 
2.750711335584e+01 3.407081975011e+01 
2.755062977435e+01 3.406648529872e+01 
2.772713047237e+01 3.407077856145e+01 
2.777064689088e+01 3.406644402788e+01 
2.794494741687e+01 3.407073819301e+01 
2.798846383538e+01 3.406640357808e+01 
2.816058619112e+01 3.407069862847e+01 
2.820410260963e+01 3.406636393300e+01 
2.837406857698e+01 3.407065985182e+01 
2.841758499549e+01 3.406632507661e+01 
2.858541613820e+01 3.407062184737e+01 
2.862893255671e+01 3.406628699322e+01 
2.879465022481e+01 3.407058459977e+01 
2.883816664332e+01 3.406624966747e+01 
2.900179197209e+01 3.407054809393e+01 
2.904530839060e+01 3.406621308426e+01 
2.920686230232e+01 3.407051231509e+01 
2.925037872083e+01 3.406617722883e+01 
2.940988192901e+01 3.407047724878e+01 
2.945339834752e+01 3.406614208670e+01 
2.961087135840e+01 3.407044288082e+01 
2.965438777691e+01 3.406610764367e+01 
2.980985089367e+01 3.407040919730e+01 
2.985336731218e+01 3.406607388583e+01 
3.000684063370e+01 3.407037618460e+01 
3.005035705221e+01 3.406604079956e+01 
3.020186047723e+01 3.407034382936e+01 
3.024537689574e+01 3.406600837148e+01 
3.039493012420e+01 3.407031211850e+01 
3.043844654271e+01 3.406597658851e+01 
3.058606907463e+01 3.407028103919e+01 
3.062958549313e+01 3.406594543781e+01 
3.077529663481e+01 3.407025057884e+01 
3.081881305332e+01 3.406591490680e+01 
3.096263191906e+01 3.407022072516e+01 
3.100614833757e+01 3.406588498315e+01 
3.114809385065e+01 3.407019146604e+01 
3.119161026916e+01 3.406585565477e+01 
3.133170116312e+01 3.407016278966e+01 
3.137521758163e+01 3.406582690982e+01 
3.151347240140e+01 3.407013468442e+01 
3.155698881991e+01 3.406579873670e+01 
3.169342592558e+01 3.407010713895e+01 
3.173694234409e+01 3.406577112402e+01 
3.187157991464e+01 3.407008014210e+01 
3.191509633315e+01 3.406574406064e+01 
3.204795236480e+01 3.407005368295e+01 
3.209146878331e+01 3.406571753562e+01 
3.222256109061e+01 3.407002775079e+01 
3.226607750912e+01 3.406569153826e+01 
3.239542372853e+01 3.407000233514e+01 
3.243894014704e+01 3.406566605806e+01 
3.256655774048e+01 3.406997742571e+01 
3.261007415899e+01 3.406564108472e+01 
3.273598041215e+01 3.406995301242e+01 
3.277949683066e+01 3.406561660816e+01 
3.290370885648e+01 3.406992908539e+01 
3.294722527499e+01 3.406559261850e+01 
3.306976001710e+01 3.406990563495e+01 
3.311327643561e+01 3.406556910606e+01 
3.323415066652e+01 3.406988265161e+01 
3.327766708503e+01 3.406554606133e+01 
3.339689740955e+01 3.406986012606e+01 
3.344041382806e+01 3.406552347501e+01 
3.355801668398e+01 3.406983804919e+01 
3.360153310249e+01 3.406550133798e+01 
3.371752476660e+01 3.406981641208e+01 
3.376104118511e+01 3.406547964130e+01 
3.387543776849e+01 3.406979520595e+01 
3.391895418700e+01 3.406545837621e+01 
3.403177163846e+01 3.406977442224e+01 
3.407528805697e+01 3.406543753413e+01 
3.418654217137e+01 3.406975405253e+01 
3.423005858988e+01 3.406541710663e+01 
3.433976500084e+01 3.406973408858e+01 
3.438328141935e+01 3.406539708547e+01 
3.449145560249e+01 3.406971452232e+01 
3.453497202100e+01 3.406537746257e+01 
3.464162929701e+01 3.406969534581e+01 
3.468514571552e+01 3.406535823000e+01 
3.479030125333e+01 3.406967655131e+01 
3.483381767184e+01 3.406533937999e+01 
3.493748648895e+01 3.406965813121e+01 
3.498100290746e+01 3.406532090493e+01 
3.508319987307e+01 3.406964007805e+01 
3.512671629158e+01 3.406530279737e+01 
3.522745612424e+01 3.406962238453e+01 
3.527097254275e+01 3.406528504999e+01 
3.537026981085e+01 3.406960504349e+01 
3.541378622936e+01 3.406526765563e+01 
3.551165536188e+01 3.406958804790e+01 
3.555517178039e+01 3.406525060726e+01 
3.565162705923e+01 3.406957139090e+01 
3.569514347774e+01 3.406523389799e+01 
3.579019903814e+01 3.406955506573e+01 
3.583371545665e+01 3.406521752110e+01 
3.592738529788e+01 3.406953906580e+01 
3.597090171639e+01 3.406520146995e+01 
3.606319969658e+01 3.406952338462e+01 
3.610671611509e+01 3.406518573806e+01 
3.619765594896e+01 3.406950801585e+01 
3.624117236747e+01 3.406517031910e+01 
3.633076763692e+01 3.406949295327e+01 
3.637428405543e+01 3.406515520683e+01 
3.646254820958e+01 3.406947819078e+01 
3.650606462809e+01 3.406514039515e+01 
3.659301097818e+01 3.406946372241e+01 
3.663652739669e+01 3.406512587807e+01 
3.672216911877e+01 3.406944954230e+01 
3.676568553728e+01 3.406511164975e+01 
3.685003567757e+01 3.406943564471e+01 
3.689355209607e+01 3.406509770443e+01 
3.697662357083e+01 3.406942202402e+01 
3.702013998934e+01 3.406508403648e+01 
3.710194558497e+01 3.406940867471e+01 
3.714546200348e+01 3.406507064039e+01 
3.722601437906e+01 3.406939559137e+01 
3.726953079757e+01 3.406505751074e+01 
3.734884248480e+01 3.406938276872e+01 
3.739235890331e+01 3.406504464224e+01 
3.747044230906e+01 3.406937020156e+01 
3.751395872757e+01 3.406503202969e+01 
3.759082613636e+01 3.406935788480e+01 
3.763434255487e+01 3.406501966800e+01 
3.771000612609e+01 3.406934581346e+01 
3.775352254460e+01 3.406500755217e+01 
3.782799431504e+01 3.406933398265e+01 
3.787151073355e+01 3.406499567732e+01 
3.794480262240e+01 3.406932238758e+01 
3.798831904091e+01 3.406498403865e+01 
3.806044284693e+01 3.406931102356e+01 
3.810395926544e+01 3.406497263147e+01 
3.817492666936e+01 3.406929988598e+01 
3.821844308787e+01 3.406496145116e+01 
3.828826565209e+01 3.406928897034e+01 
3.833178207060e+01 3.406495049322e+01 
3.840047124424e+01 3.406927827222e+01 
3.844398766275e+01 3.406493975322e+01 
3.851155478122e+01 3.406926778728e+01 
3.855507119973e+01 3.406492922682e+01 
3.862152748186e+01 3.406925751128e+01 
3.866504390037e+01 3.406491890978e+01 
3.873040045590e+01 3.406924744006e+01 
3.877391687441e+01 3.406490879792e+01 
3.883818470094e+01 3.406923756954e+01 
3.888170111945e+01 3.406489888718e+01 
3.894489110214e+01 3.406922789573e+01 
3.898840752065e+01 3.406488917354e+01 
3.905053043960e+01 3.406921841470e+01 
3.909404685811e+01 3.406487965309e+01 
3.915511338528e+01 3.406920912263e+01 
3.919862980379e+01 3.406487032198e+01 
3.925865049994e+01 3.406920001573e+01 
3.930216691845e+01 3.406486117645e+01 
3.936115224318e+01 3.406919109034e+01 
3.940466866169e+01 3.406485221280e+01 
3.946262897021e+01 3.406918234282e+01 
3.950614538872e+01 3.406484342741e+01 
3.956309092879e+01 3.406917376965e+01 
3.960660734730e+01 3.406483481675e+01 
3.966254826913e+01 3.406916536735e+01 
3.970606468764e+01 3.406482637733e+01 
3.976101103803e+01 3.406915713251e+01 
3.980452745654e+01 3.406481810575e+01 
3.985848917837e+01 3.406914906180e+01 
3.990200559688e+01 3.406480999866e+01 
3.995499253636e+01 3.406914115195e+01 
3.999850895487e+01 3.406480205280e+01 
4.005053086083e+01 3.406913339976e+01 
4.009404727934e+01 3.406479426496e+01 
4.014511380265e+01 3.406912580209e+01 
4.018863022116e+01 3.406478663199e+01 
4.023875091401e+01 3.406911835585e+01 
4.028226733252e+01 3.406477915082e+01 
4.033145165303e+01 3.406911105805e+01 
4.037496807154e+01 3.406477181842e+01 
4.042322538561e+01 3.406910390571e+01 
4.046674180412e+01 3.406476463183e+01 
4.051408138207e+01 3.406909689594e+01 
4.055759780058e+01 3.406475758816e+01 
4.060402881911e+01 3.406909002590e+01 
4.064754523762e+01 3.406475068456e+01 
4.069307678157e+01 3.406908329281e+01 
4.073659320008e+01 3.406474391825e+01 
4.078123426434e+01 3.406907669394e+01 
4.082475068285e+01 3.406473728648e+01 
4.086851017149e+01 3.406907022662e+01 
4.091202659000e+01 3.406473078660e+01 
4.095491331817e+01 3.406906388823e+01 
4.099842973668e+01 3.406472441596e+01 
4.104045243487e+01 3.406905767619e+01 
4.108396885338e+01 3.406471817201e+01 
4.112513616140e+01 3.406905158800e+01 
4.116865257991e+01 3.406471205222e+01 
4.120897304866e+01 3.406904562119e+01 
4.125248946717e+01 3.406470605413e+01 
4.129197156559e+01 3.406903977333e+01 
4.133548798410e+01 3.406470017530e+01 
4.137414009822e+01 3.406903404206e+01 
4.141765651673e+01 3.406469441338e+01 
4.145548694616e+01 3.406902842506e+01 
4.149900336467e+01 3.406468876603e+01 
4.153602032688e+01 3.406902292005e+01 
4.157953674539e+01 3.406468323097e+01 
4.161574837472e+01 3.406901752480e+01 
4.165926479323e+01 3.406467780597e+01 
4.169467914003e+01 3.406901223712e+01 
4.173819555854e+01 3.406467248884e+01 
4.177282059594e+01 3.406900705487e+01 
4.181633701445e+01 3.406466727744e+01 
4.185018063736e+01 3.406900197596e+01 
4.189369705587e+01 3.406466216967e+01 
4.192676707995e+01 3.406899699831e+01 
4.197028349846e+01 3.406465716345e+01 
4.200258765907e+01 3.406899211992e+01 
4.204610407758e+01 3.406465225677e+01 
4.207765003139e+01 3.406898733881e+01 
4.212116644990e+01 3.406464744766e+01 
4.215196177905e+01 3.406898265304e+01 
4.219547819756e+01 3.406464273416e+01 
4.222553041115e+01 3.406897806077e+01 
4.226904682966e+01 3.406463811444e+01 
