 TITLE = "Profiles along polylines"
 VARIABLES = "DIST" "HEAD" 
 ZONE T="TIME=0.000000000000e+00"
8.087685506636e+01 0.000000000000e+00 
8.129968801062e+01 0.000000000000e+00 
8.171829262776e+01 0.000000000000e+00 
8.213271119764e+01 0.000000000000e+00 
8.254298558166e+01 0.000000000000e+00 
8.294915722331e+01 0.000000000000e+00 
8.335126714873e+01 0.000000000000e+00 
8.374935597498e+01 0.000000000000e+00 
8.414346391300e+01 0.000000000000e+00 
8.453363077048e+01 0.000000000000e+00 
8.491989595734e+01 0.000000000000e+00 
8.530229849364e+01 0.000000000000e+00 
8.568087700428e+01 0.000000000000e+00 
8.605566972962e+01 0.000000000000e+00 
8.642671452777e+01 0.000000000000e+00 
8.679404887714e+01 0.000000000000e+00 
8.715770988390e+01 0.000000000000e+00 
8.751773427908e+01 0.000000000000e+00 
8.787415843119e+01 0.000000000000e+00 
8.822701834305e+01 0.000000000000e+00 
8.857634965653e+01 0.000000000000e+00 
8.892218765702e+01 0.000000000000e+00 
8.926456727546e+01 0.000000000000e+00 
8.960352309790e+01 0.000000000000e+00 
8.993908936204e+01 0.000000000000e+00 
9.027129996415e+01 0.000000000000e+00 
9.060018846063e+01 0.000000000000e+00 
9.092578807229e+01 0.000000000000e+00 
9.124813168827e+01 0.000000000000e+00 
9.156725186762e+01 0.000000000000e+00 
9.188318084574e+01 0.000000000000e+00 
9.219595053309e+01 0.000000000000e+00 
9.250559252428e+01 0.000000000000e+00 
9.281213809650e+01 0.000000000000e+00 
9.311561821070e+01 0.000000000000e+00 
9.341606352307e+01 0.000000000000e+00 
9.371350438328e+01 0.000000000000e+00 
9.400797083547e+01 0.000000000000e+00 
9.429949262425e+01 0.000000000000e+00 
9.458809919551e+01 0.000000000000e+00 
9.487381969975e+01 0.000000000000e+00 
9.515668299798e+01 0.000000000000e+00 
9.543671766226e+01 0.000000000000e+00 
9.571395197889e+01 0.000000000000e+00 
9.598841395411e+01 0.000000000000e+00 
9.626013131184e+01 0.000000000000e+00 
9.652913149675e+01 0.000000000000e+00 
9.679544167979e+01 0.000000000000e+00 
9.705908875840e+01 0.000000000000e+00 
9.732009936465e+01 0.000000000000e+00 
9.757849986523e+01 0.000000000000e+00 
9.783431636167e+01 0.000000000000e+00 
9.808757469286e+01 0.000000000000e+00 
9.833830044045e+01 0.000000000000e+00 
9.858651893122e+01 0.000000000000e+00 
9.883225523705e+01 0.000000000000e+00 
9.907553417998e+01 0.000000000000e+00 
9.931638033459e+01 0.000000000000e+00 
9.955481802768e+01 0.000000000000e+00 
9.979087134329e+01 0.000000000000e+00 
1.000245641248e+02 0.000000000000e+00 
1.002559199774e+02 0.000000000000e+00 
1.004849622724e+02 0.000000000000e+00 
1.007117141446e+02 0.000000000000e+00 
1.009361984991e+02 0.000000000000e+00 
1.011584380111e+02 0.000000000000e+00 
1.013784551276e+02 0.000000000000e+00 
1.015962720721e+02 0.000000000000e+00 
1.018119108464e+02 0.000000000000e+00 
 TITLE = "Profiles along polylines"
 VARIABLES = "DIST" "HEAD" 
 ZONE T="TIME=1.797693134862e+308"
8.087685506636e+01 3.103496793943e+01 
8.129968801062e+01 3.103419953934e+01 
8.171829262776e+01 3.103344068348e+01 
8.213271119764e+01 3.103269126156e+01 
8.254298558166e+01 3.103195115556e+01 
8.294915722331e+01 3.103122024490e+01 
8.335126714873e+01 3.103049840883e+01 
8.374935597498e+01 3.102978552732e+01 
8.414346391300e+01 3.102908148143e+01 
8.453363077048e+01 3.102838615336e+01 
8.491989595734e+01 3.102769942641e+01 
8.530229849364e+01 3.102702118493e+01 
8.568087700428e+01 3.102635131434e+01 
8.605566972962e+01 3.102568970106e+01 
8.642671452777e+01 3.102503623258e+01 
8.679404887714e+01 3.102439079746e+01 
8.715770988390e+01 3.102375328534e+01 
8.751773427908e+01 3.102312358703e+01 
8.787415843119e+01 3.102250159445e+01 
8.822701834305e+01 3.102188720074e+01 
8.857634965653e+01 3.102128030026e+01 
8.892218765702e+01 3.102068078860e+01 
8.926456727546e+01 3.102008856262e+01 
8.960352309790e+01 3.101950352046e+01 
8.993908936204e+01 3.101892556153e+01 
9.027129996415e+01 3.101835458658e+01 
9.060018846063e+01 3.101779049766e+01 
9.092578807229e+01 3.101723319816e+01 
9.124813168827e+01 3.101668259278e+01 
9.156725186762e+01 3.101613858757e+01 
9.188318084574e+01 3.101560108993e+01 
9.219595053309e+01 3.101507000858e+01 
9.250559252428e+01 3.101454525360e+01 
9.281213809650e+01 3.101402673638e+01 
9.311561821070e+01 3.101351436967e+01 
9.341606352307e+01 3.101300806753e+01 
9.371350438328e+01 3.101250774534e+01 
9.400797083547e+01 3.101201331979e+01 
9.429949262425e+01 3.101152470889e+01 
9.458809919551e+01 3.101104183193e+01 
9.487381969975e+01 3.101056460948e+01 
9.515668299798e+01 3.101009296337e+01 
9.543671766226e+01 3.100962681670e+01 
9.571395197889e+01 3.100916609380e+01 
9.598841395411e+01 3.100871072022e+01 
9.626013131184e+01 3.100826062272e+01 
9.652913149675e+01 3.100781572927e+01 
9.679544167979e+01 3.100737596899e+01 
9.705908875840e+01 3.100694127219e+01 
9.732009936465e+01 3.100651157029e+01 
9.757849986523e+01 3.100608679586e+01 
9.783431636167e+01 3.100566688257e+01 
9.808757469286e+01 3.100525176515e+01 
9.833830044045e+01 3.100484137946e+01 
9.858651893122e+01 3.100443566235e+01 
9.883225523705e+01 3.100403455175e+01 
9.907553417998e+01 3.100363798659e+01 
9.931638033459e+01 3.100324590679e+01 
9.955481802768e+01 3.100285825327e+01 
9.979087134329e+01 3.100247496790e+01 
1.000245641248e+02 3.100209599350e+01 
1.002559199774e+02 3.100172127382e+01 
1.004849622724e+02 3.100135075352e+01 
1.007117141446e+02 3.100098437815e+01 
1.009361984991e+02 3.100062209414e+01 
1.011584380111e+02 3.100026384879e+01 
1.013784551276e+02 3.099990959023e+01 
1.015962720721e+02 3.099955926743e+01 
1.018119108464e+02 3.099921283017e+01 
