 TITLE = "Profiles along polylines"
 VARIABLES = "DIST" "HEAD" 
 ZONE T="TIME=0.000000000000e+00"
6.713457793512e+00 0.000000000000e+00 
6.755425188615e+00 0.000000000000e+00 
6.797519535348e+00 0.000000000000e+00 
7.136290737778e+00 0.000000000000e+00 
7.178258132881e+00 0.000000000000e+00 
7.220352479614e+00 0.000000000000e+00 
7.554895354917e+00 0.000000000000e+00 
7.596862750020e+00 0.000000000000e+00 
7.638957096754e+00 0.000000000000e+00 
7.969313924787e+00 0.000000000000e+00 
8.011281319890e+00 0.000000000000e+00 
8.053375666624e+00 0.000000000000e+00 
8.379588308807e+00 0.000000000000e+00 
8.421555703910e+00 0.000000000000e+00 
8.463650050644e+00 0.000000000000e+00 
8.785759950460e+00 0.000000000000e+00 
8.827727345563e+00 0.000000000000e+00 
8.869821692297e+00 0.000000000000e+00 
9.187869875883e+00 0.000000000000e+00 
9.229837270986e+00 0.000000000000e+00 
9.271931617719e+00 0.000000000000e+00 
9.585958702132e+00 0.000000000000e+00 
9.627926097235e+00 0.000000000000e+00 
9.670020443968e+00 0.000000000000e+00 
9.980066640145e+00 0.000000000000e+00 
1.002203403525e+01 0.000000000000e+00 
1.006412838198e+01 0.000000000000e+00 
1.037023349763e+01 0.000000000000e+00 
1.041220089273e+01 0.000000000000e+00 
1.045429523946e+01 0.000000000000e+00 
1.075649868449e+01 0.000000000000e+00 
1.079846607959e+01 0.000000000000e+00 
1.084056042632e+01 0.000000000000e+00 
1.113890122078e+01 0.000000000000e+00 
1.118086861588e+01 0.000000000000e+00 
1.122296296261e+01 0.000000000000e+00 
1.151747973142e+01 0.000000000000e+00 
1.155944712652e+01 0.000000000000e+00 
1.160154147325e+01 0.000000000000e+00 
1.189227245676e+01 0.000000000000e+00 
1.193423985186e+01 0.000000000000e+00 
1.197633419860e+01 0.000000000000e+00 
1.226331725491e+01 0.000000000000e+00 
1.230528465001e+01 0.000000000000e+00 
1.234737899674e+01 0.000000000000e+00 
1.263065160428e+01 0.000000000000e+00 
1.267261899938e+01 0.000000000000e+00 
1.271471334612e+01 0.000000000000e+00 
1.299431261104e+01 0.000000000000e+00 
1.303628000614e+01 0.000000000000e+00 
1.307837435288e+01 0.000000000000e+00 
1.335433700622e+01 0.000000000000e+00 
1.339630440132e+01 0.000000000000e+00 
1.343839874805e+01 0.000000000000e+00 
1.371076115833e+01 0.000000000000e+00 
1.375272855343e+01 0.000000000000e+00 
1.379482290017e+01 0.000000000000e+00 
1.406362107019e+01 0.000000000000e+00 
1.410558846529e+01 0.000000000000e+00 
1.414768281203e+01 0.000000000000e+00 
1.441295238366e+01 0.000000000000e+00 
1.445491977877e+01 0.000000000000e+00 
1.449701412550e+01 0.000000000000e+00 
1.475879038415e+01 0.000000000000e+00 
1.480075777926e+01 0.000000000000e+00 
1.484285212599e+01 0.000000000000e+00 
1.510117000259e+01 0.000000000000e+00 
1.514313739769e+01 0.000000000000e+00 
1.518523174443e+01 0.000000000000e+00 
1.544012582503e+01 0.000000000000e+00 
1.548209322014e+01 0.000000000000e+00 
1.552418756687e+01 0.000000000000e+00 
1.577569208917e+01 0.000000000000e+00 
1.581765948427e+01 0.000000000000e+00 
1.585975383100e+01 0.000000000000e+00 
1.610790269127e+01 0.000000000000e+00 
1.614987008638e+01 0.000000000000e+00 
1.619196443311e+01 0.000000000000e+00 
1.643679118776e+01 0.000000000000e+00 
1.647875858286e+01 0.000000000000e+00 
1.652085292959e+01 0.000000000000e+00 
1.676239079941e+01 0.000000000000e+00 
1.680435819452e+01 0.000000000000e+00 
1.684645254125e+01 0.000000000000e+00 
1.708473441540e+01 0.000000000000e+00 
1.712670181050e+01 0.000000000000e+00 
1.716879615723e+01 0.000000000000e+00 
1.740385459475e+01 0.000000000000e+00 
1.744582198985e+01 0.000000000000e+00 
1.748791633658e+01 0.000000000000e+00 
1.771978357286e+01 0.000000000000e+00 
1.776175096797e+01 0.000000000000e+00 
1.780384531470e+01 0.000000000000e+00 
1.803255326021e+01 0.000000000000e+00 
1.807452065532e+01 0.000000000000e+00 
1.811661500205e+01 0.000000000000e+00 
1.834219525140e+01 0.000000000000e+00 
1.838416264651e+01 0.000000000000e+00 
1.842625699324e+01 0.000000000000e+00 
1.864874082362e+01 0.000000000000e+00 
1.869070821872e+01 0.000000000000e+00 
1.873280256546e+01 0.000000000000e+00 
1.895222093782e+01 0.000000000000e+00 
1.899418833292e+01 0.000000000000e+00 
1.903628267966e+01 0.000000000000e+00 
1.925266625019e+01 0.000000000000e+00 
1.929463364529e+01 0.000000000000e+00 
1.933672799202e+01 0.000000000000e+00 
1.955010711040e+01 0.000000000000e+00 
1.959207450550e+01 0.000000000000e+00 
1.963416885224e+01 0.000000000000e+00 
1.984457356259e+01 0.000000000000e+00 
1.988654095769e+01 0.000000000000e+00 
1.992863530442e+01 0.000000000000e+00 
2.013609535136e+01 0.000000000000e+00 
2.017806274647e+01 0.000000000000e+00 
2.022015709320e+01 0.000000000000e+00 
2.042470192262e+01 0.000000000000e+00 
2.046666931772e+01 0.000000000000e+00 
2.050876366446e+01 0.000000000000e+00 
2.071042242686e+01 0.000000000000e+00 
2.075238982196e+01 0.000000000000e+00 
2.079448416870e+01 0.000000000000e+00 
2.099328572509e+01 0.000000000000e+00 
2.103525312019e+01 0.000000000000e+00 
2.107734746693e+01 0.000000000000e+00 
2.127332038937e+01 0.000000000000e+00 
2.131528778447e+01 0.000000000000e+00 
2.135738213121e+01 0.000000000000e+00 
2.155055470600e+01 0.000000000000e+00 
2.159252210111e+01 0.000000000000e+00 
2.163461644784e+01 0.000000000000e+00 
2.182501668122e+01 0.000000000000e+00 
2.186698407632e+01 0.000000000000e+00 
2.190907842306e+01 0.000000000000e+00 
2.209673403895e+01 0.000000000000e+00 
2.213870143405e+01 0.000000000000e+00 
2.218079578079e+01 0.000000000000e+00 
2.236573422386e+01 0.000000000000e+00 
2.240770161897e+01 0.000000000000e+00 
2.244979596570e+01 0.000000000000e+00 
2.263204440690e+01 0.000000000000e+00 
2.267401180200e+01 0.000000000000e+00 
2.271610614873e+01 0.000000000000e+00 
2.289569148550e+01 0.000000000000e+00 
2.293765888061e+01 0.000000000000e+00 
2.297975322734e+01 0.000000000000e+00 
2.315670209175e+01 0.000000000000e+00 
2.319866948686e+01 0.000000000000e+00 
2.324076383359e+01 0.000000000000e+00 
2.341510259234e+01 0.000000000000e+00 
2.345706998744e+01 0.000000000000e+00 
2.349916433418e+01 0.000000000000e+00 
2.367091908877e+01 0.000000000000e+00 
2.371288648387e+01 0.000000000000e+00 
2.375498083061e+01 0.000000000000e+00 
2.392417741997e+01 0.000000000000e+00 
2.396614481507e+01 0.000000000000e+00 
2.400823916180e+01 0.000000000000e+00 
2.417490316756e+01 0.000000000000e+00 
2.421687056266e+01 0.000000000000e+00 
2.425896490939e+01 0.000000000000e+00 
2.442312165832e+01 0.000000000000e+00 
2.446508905342e+01 0.000000000000e+00 
2.450718340016e+01 0.000000000000e+00 
2.466885796416e+01 0.000000000000e+00 
2.471082535926e+01 0.000000000000e+00 
2.475291970599e+01 0.000000000000e+00 
2.491213690709e+01 0.000000000000e+00 
2.495410430219e+01 0.000000000000e+00 
2.499619864893e+01 0.000000000000e+00 
2.515298306170e+01 0.000000000000e+00 
2.519495045680e+01 0.000000000000e+00 
2.523704480353e+01 0.000000000000e+00 
2.539142075479e+01 0.000000000000e+00 
2.543338814989e+01 0.000000000000e+00 
2.547548249662e+01 0.000000000000e+00 
2.562747407039e+01 0.000000000000e+00 
2.566944146550e+01 0.000000000000e+00 
2.571153581223e+01 0.000000000000e+00 
2.586116685194e+01 0.000000000000e+00 
2.590313424704e+01 0.000000000000e+00 
2.594522859378e+01 0.000000000000e+00 
2.609252270451e+01 0.000000000000e+00 
2.613449009962e+01 0.000000000000e+00 
2.617658444635e+01 0.000000000000e+00 
2.632156499954e+01 0.000000000000e+00 
2.636353239464e+01 0.000000000000e+00 
2.640562674137e+01 0.000000000000e+00 
2.654831687169e+01 0.000000000000e+00 
2.659028426680e+01 0.000000000000e+00 
2.663237861353e+01 0.000000000000e+00 
2.677280122621e+01 0.000000000000e+00 
2.681476862131e+01 0.000000000000e+00 
2.685686296804e+01 0.000000000000e+00 
2.699504073820e+01 0.000000000000e+00 
2.703700813331e+01 0.000000000000e+00 
2.707910248004e+01 0.000000000000e+00 
2.721505785473e+01 0.000000000000e+00 
2.725702524983e+01 0.000000000000e+00 
2.729911959656e+01 0.000000000000e+00 
2.743287479923e+01 0.000000000000e+00 
2.747484219433e+01 0.000000000000e+00 
2.751693654107e+01 0.000000000000e+00 
2.764851357348e+01 0.000000000000e+00 
2.769048096858e+01 0.000000000000e+00 
2.773257531532e+01 0.000000000000e+00 
2.786199595934e+01 0.000000000000e+00 
2.790396335444e+01 0.000000000000e+00 
2.794605770117e+01 0.000000000000e+00 
2.807334352056e+01 0.000000000000e+00 
2.811531091567e+01 0.000000000000e+00 
2.815740526240e+01 0.000000000000e+00 
2.828257760716e+01 0.000000000000e+00 
2.832454500227e+01 0.000000000000e+00 
2.836663934900e+01 0.000000000000e+00 
2.848971935444e+01 0.000000000000e+00 
2.853168674955e+01 0.000000000000e+00 
2.857378109628e+01 0.000000000000e+00 
2.869478968468e+01 0.000000000000e+00 
2.873675707979e+01 0.000000000000e+00 
2.877885142652e+01 0.000000000000e+00 
2.889780931137e+01 0.000000000000e+00 
2.893977670648e+01 0.000000000000e+00 
2.898187105321e+01 0.000000000000e+00 
2.909879874076e+01 0.000000000000e+00 
2.914076613587e+01 0.000000000000e+00 
2.918286048260e+01 0.000000000000e+00 
2.929777827603e+01 0.000000000000e+00 
2.933974567113e+01 0.000000000000e+00 
2.938184001786e+01 0.000000000000e+00 
2.949476801606e+01 0.000000000000e+00 
2.953673541116e+01 0.000000000000e+00 
2.957882975789e+01 0.000000000000e+00 
2.968978785958e+01 0.000000000000e+00 
2.973175525469e+01 0.000000000000e+00 
2.977384960142e+01 0.000000000000e+00 
2.988285750656e+01 0.000000000000e+00 
2.992482490167e+01 0.000000000000e+00 
2.996691924840e+01 0.000000000000e+00 
3.007399645698e+01 0.000000000000e+00 
3.011596385209e+01 0.000000000000e+00 
3.015805819882e+01 0.000000000000e+00 
3.026322401717e+01 0.000000000000e+00 
3.030519141227e+01 0.000000000000e+00 
3.034728575900e+01 0.000000000000e+00 
3.045055930142e+01 0.000000000000e+00 
3.049252669652e+01 0.000000000000e+00 
3.053462104325e+01 0.000000000000e+00 
3.063602123301e+01 0.000000000000e+00 
3.067798862812e+01 0.000000000000e+00 
3.072008297485e+01 0.000000000000e+00 
3.081962854548e+01 0.000000000000e+00 
3.086159594059e+01 0.000000000000e+00 
3.090369028732e+01 0.000000000000e+00 
3.100139978375e+01 0.000000000000e+00 
3.104336717886e+01 0.000000000000e+00 
3.108546152559e+01 0.000000000000e+00 
3.118135330794e+01 0.000000000000e+00 
3.122332070304e+01 0.000000000000e+00 
3.126541504978e+01 0.000000000000e+00 
3.135950729700e+01 0.000000000000e+00 
3.140147469210e+01 0.000000000000e+00 
3.144356903884e+01 0.000000000000e+00 
3.153587974716e+01 0.000000000000e+00 
3.157784714226e+01 0.000000000000e+00 
3.161994148900e+01 0.000000000000e+00 
3.171048847297e+01 0.000000000000e+00 
3.175245586807e+01 0.000000000000e+00 
3.179455021480e+01 0.000000000000e+00 
3.188335111088e+01 0.000000000000e+00 
3.192531850599e+01 0.000000000000e+00 
3.196741285272e+01 0.000000000000e+00 
3.205448512284e+01 0.000000000000e+00 
3.209645251795e+01 0.000000000000e+00 
3.213854686468e+01 0.000000000000e+00 
3.222390779451e+01 0.000000000000e+00 
3.226587518961e+01 0.000000000000e+00 
3.230796953635e+01 0.000000000000e+00 
3.239163623884e+01 0.000000000000e+00 
3.243360363394e+01 0.000000000000e+00 
3.247569798068e+01 0.000000000000e+00 
3.255768739946e+01 0.000000000000e+00 
3.259965479456e+01 0.000000000000e+00 
3.264174914130e+01 0.000000000000e+00 
3.272207804888e+01 0.000000000000e+00 
3.276404544399e+01 0.000000000000e+00 
3.280613979072e+01 0.000000000000e+00 
3.288482479191e+01 0.000000000000e+00 
3.292679218701e+01 0.000000000000e+00 
3.296888653374e+01 0.000000000000e+00 
3.304594406634e+01 0.000000000000e+00 
3.308791146144e+01 0.000000000000e+00 
3.313000580817e+01 0.000000000000e+00 
3.320545214896e+01 0.000000000000e+00 
3.324741954406e+01 0.000000000000e+00 
3.328951389079e+01 0.000000000000e+00 
3.336336515085e+01 0.000000000000e+00 
3.340533254595e+01 0.000000000000e+00 
3.344742689269e+01 0.000000000000e+00 
3.351969902082e+01 0.000000000000e+00 
3.356166641593e+01 0.000000000000e+00 
3.360376076266e+01 0.000000000000e+00 
3.367446955373e+01 0.000000000000e+00 
3.371643694884e+01 0.000000000000e+00 
3.375853129557e+01 0.000000000000e+00 
3.382769238320e+01 0.000000000000e+00 
3.386965977831e+01 0.000000000000e+00 
3.391175412504e+01 0.000000000000e+00 
3.397938298485e+01 0.000000000000e+00 
3.402135037995e+01 0.000000000000e+00 
3.406344472669e+01 0.000000000000e+00 
3.412955667937e+01 0.000000000000e+00 
3.417152407448e+01 0.000000000000e+00 
3.421361842121e+01 0.000000000000e+00 
3.427822863569e+01 0.000000000000e+00 
3.432019603079e+01 0.000000000000e+00 
3.436229037753e+01 0.000000000000e+00 
3.442541387131e+01 0.000000000000e+00 
3.446738126641e+01 0.000000000000e+00 
3.450947561314e+01 0.000000000000e+00 
3.457112725543e+01 0.000000000000e+00 
3.461309465053e+01 0.000000000000e+00 
3.465518899726e+01 0.000000000000e+00 
3.471538350660e+01 0.000000000000e+00 
3.475735090170e+01 0.000000000000e+00 
3.479944524844e+01 0.000000000000e+00 
3.485819719321e+01 0.000000000000e+00 
3.490016458832e+01 0.000000000000e+00 
3.494225893505e+01 0.000000000000e+00 
3.499958274424e+01 0.000000000000e+00 
3.504155013934e+01 0.000000000000e+00 
3.508364448608e+01 0.000000000000e+00 
3.513955444159e+01 0.000000000000e+00 
3.518152183669e+01 0.000000000000e+00 
3.522361618342e+01 0.000000000000e+00 
3.527812642050e+01 0.000000000000e+00 
3.532009381561e+01 0.000000000000e+00 
3.536218816234e+01 0.000000000000e+00 
3.541531268024e+01 0.000000000000e+00 
3.545728007534e+01 0.000000000000e+00 
3.549937442207e+01 0.000000000000e+00 
3.555112707894e+01 0.000000000000e+00 
3.559309447404e+01 0.000000000000e+00 
3.563518882078e+01 0.000000000000e+00 
3.568558333132e+01 0.000000000000e+00 
3.572755072642e+01 0.000000000000e+00 
3.576964507315e+01 0.000000000000e+00 
3.581869501928e+01 0.000000000000e+00 
3.586066241438e+01 0.000000000000e+00 
3.590275676111e+01 0.000000000000e+00 
3.595047559194e+01 0.000000000000e+00 
3.599244298704e+01 0.000000000000e+00 
3.603453733378e+01 0.000000000000e+00 
3.608093836054e+01 0.000000000000e+00 
3.612290575564e+01 0.000000000000e+00 
3.616500010237e+01 0.000000000000e+00 
3.621009650113e+01 0.000000000000e+00 
3.625206389624e+01 0.000000000000e+00 
3.629415824297e+01 0.000000000000e+00 
3.633796305992e+01 0.000000000000e+00 
3.637993045503e+01 0.000000000000e+00 
3.642202480176e+01 0.000000000000e+00 
3.646455095319e+01 0.000000000000e+00 
3.650651834829e+01 0.000000000000e+00 
3.654861269503e+01 0.000000000000e+00 
3.658987296733e+01 0.000000000000e+00 
3.663184036243e+01 0.000000000000e+00 
3.667393470916e+01 0.000000000000e+00 
3.671394176142e+01 0.000000000000e+00 
3.675590915652e+01 0.000000000000e+00 
3.679800350325e+01 0.000000000000e+00 
3.683676986716e+01 0.000000000000e+00 
3.687873726226e+01 0.000000000000e+00 
3.692083160900e+01 0.000000000000e+00 
3.695836969142e+01 0.000000000000e+00 
3.700033708652e+01 0.000000000000e+00 
3.704243143326e+01 0.000000000000e+00 
3.707875351872e+01 0.000000000000e+00 
3.712072091382e+01 0.000000000000e+00 
3.716281526056e+01 0.000000000000e+00 
3.719793350845e+01 0.000000000000e+00 
3.723990090355e+01 0.000000000000e+00 
3.728199525029e+01 0.000000000000e+00 
3.731592169740e+01 0.000000000000e+00 
3.735788909250e+01 0.000000000000e+00 
3.739998343924e+01 0.000000000000e+00 
3.743273000476e+01 0.000000000000e+00 
3.747469739987e+01 0.000000000000e+00 
3.751679174660e+01 0.000000000000e+00 
3.754837022929e+01 0.000000000000e+00 
3.759033762440e+01 0.000000000000e+00 
3.763243197113e+01 0.000000000000e+00 
3.766285405171e+01 0.000000000000e+00 
3.770482144682e+01 0.000000000000e+00 
3.774691579355e+01 0.000000000000e+00 
3.777619303445e+01 0.000000000000e+00 
3.781816042955e+01 0.000000000000e+00 
3.786025477628e+01 0.000000000000e+00 
3.788839862660e+01 0.000000000000e+00 
3.793036602170e+01 0.000000000000e+00 
3.797246036844e+01 0.000000000000e+00 
3.799948216358e+01 0.000000000000e+00 
3.804144955869e+01 0.000000000000e+00 
3.808354390542e+01 0.000000000000e+00 
3.810945486422e+01 0.000000000000e+00 
3.815142225933e+01 0.000000000000e+00 
3.819351660606e+01 0.000000000000e+00 
3.821832783826e+01 0.000000000000e+00 
3.826029523336e+01 0.000000000000e+00 
3.830238958009e+01 0.000000000000e+00 
3.832611208330e+01 0.000000000000e+00 
3.836807947840e+01 0.000000000000e+00 
3.841017382514e+01 0.000000000000e+00 
3.843281848450e+01 0.000000000000e+00 
3.847478587960e+01 0.000000000000e+00 
3.851688022634e+01 0.000000000000e+00 
3.853845782196e+01 0.000000000000e+00 
3.858042521707e+01 0.000000000000e+00 
3.862251956380e+01 0.000000000000e+00 
3.864304076764e+01 0.000000000000e+00 
3.868500816274e+01 0.000000000000e+00 
3.872710250948e+01 0.000000000000e+00 
3.874657788230e+01 0.000000000000e+00 
3.878854527740e+01 0.000000000000e+00 
3.883063962413e+01 0.000000000000e+00 
3.884907962554e+01 0.000000000000e+00 
3.889104702064e+01 0.000000000000e+00 
3.893314136738e+01 0.000000000000e+00 
3.895055635257e+01 0.000000000000e+00 
3.899252374768e+01 0.000000000000e+00 
3.903461809441e+01 0.000000000000e+00 
3.905101831115e+01 0.000000000000e+00 
3.909298570625e+01 0.000000000000e+00 
3.913508005299e+01 0.000000000000e+00 
3.915047565149e+01 0.000000000000e+00 
3.919244304659e+01 0.000000000000e+00 
3.923453739333e+01 0.000000000000e+00 
3.924893842039e+01 0.000000000000e+00 
3.929090581549e+01 0.000000000000e+00 
3.933300016223e+01 0.000000000000e+00 
3.934641656073e+01 0.000000000000e+00 
3.938838395584e+01 0.000000000000e+00 
3.943047830257e+01 0.000000000000e+00 
3.944291991872e+01 0.000000000000e+00 
3.948488731382e+01 0.000000000000e+00 
3.952698166055e+01 0.000000000000e+00 
3.953845824319e+01 0.000000000000e+00 
3.958042563830e+01 0.000000000000e+00 
3.962251998503e+01 0.000000000000e+00 
3.963304118501e+01 0.000000000000e+00 
3.967500858011e+01 0.000000000000e+00 
3.971710292685e+01 0.000000000000e+00 
3.972667829637e+01 0.000000000000e+00 
3.976864569147e+01 0.000000000000e+00 
3.981074003821e+01 0.000000000000e+00 
3.981937903539e+01 0.000000000000e+00 
3.986134643049e+01 0.000000000000e+00 
3.990344077722e+01 0.000000000000e+00 
3.991115276796e+01 0.000000000000e+00 
3.995312016307e+01 0.000000000000e+00 
3.999521450980e+01 0.000000000000e+00 
4.000200876443e+01 0.000000000000e+00 
4.004397615954e+01 0.000000000000e+00 
4.008607050627e+01 0.000000000000e+00 
4.009195620147e+01 0.000000000000e+00 
4.013392359657e+01 0.000000000000e+00 
4.017601794331e+01 0.000000000000e+00 
4.018100416393e+01 0.000000000000e+00 
4.022297155903e+01 0.000000000000e+00 
4.026506590577e+01 0.000000000000e+00 
4.026916164670e+01 0.000000000000e+00 
4.031112904180e+01 0.000000000000e+00 
4.035322338853e+01 0.000000000000e+00 
4.035643755385e+01 0.000000000000e+00 
4.039840494896e+01 0.000000000000e+00 
4.044049929569e+01 0.000000000000e+00 
4.044284070052e+01 0.000000000000e+00 
4.048480809563e+01 0.000000000000e+00 
4.052690244236e+01 0.000000000000e+00 
4.052837981723e+01 0.000000000000e+00 
4.057034721233e+01 0.000000000000e+00 
4.061244155906e+01 0.000000000000e+00 
4.061306354376e+01 0.000000000000e+00 
4.065503093886e+01 0.000000000000e+00 
4.069690043102e+01 0.000000000000e+00 
4.069712528559e+01 0.000000000000e+00 
4.073886782612e+01 0.000000000000e+00 
4.077989894795e+01 0.000000000000e+00 
4.078096217285e+01 0.000000000000e+00 
4.082186634305e+01 0.000000000000e+00 
4.086206748058e+01 0.000000000000e+00 
4.086396068978e+01 0.000000000000e+00 
4.090403487569e+01 0.000000000000e+00 
4.094341432852e+01 0.000000000000e+00 
4.094612922242e+01 0.000000000000e+00 
4.098538172362e+01 0.000000000000e+00 
4.102394770924e+01 0.000000000000e+00 
4.102747607036e+01 0.000000000000e+00 
4.106591510434e+01 0.000000000000e+00 
4.110367575708e+01 0.000000000000e+00 
4.110800945107e+01 0.000000000000e+00 
4.114564315219e+01 0.000000000000e+00 
4.118260652239e+01 0.000000000000e+00 
4.118773749892e+01 0.000000000000e+00 
4.122457391750e+01 0.000000000000e+00 
4.126074797830e+01 0.000000000000e+00 
4.126666826423e+01 0.000000000000e+00 
4.130271537340e+01 0.000000000000e+00 
4.133810801972e+01 0.000000000000e+00 
4.134480972014e+01 0.000000000000e+00 
4.138007541482e+01 0.000000000000e+00 
4.141469446231e+01 0.000000000000e+00 
4.142216976156e+01 0.000000000000e+00 
4.145666185741e+01 0.000000000000e+00 
4.149051504143e+01 0.000000000000e+00 
4.149875620415e+01 0.000000000000e+00 
4.153248243653e+01 0.000000000000e+00 
4.156557741375e+01 0.000000000000e+00 
4.157457678326e+01 0.000000000000e+00 
4.160754480885e+01 0.000000000000e+00 
4.163988916141e+01 0.000000000000e+00 
4.164963915558e+01 0.000000000000e+00 
4.168185655651e+01 0.000000000000e+00 
4.171345779351e+01 0.000000000000e+00 
4.172395090324e+01 0.000000000000e+00 
4.175542518861e+01 0.000000000000e+00 
4.179751953535e+01 0.000000000000e+00 
 TITLE = "Profiles along polylines"
 VARIABLES = "DIST" "HEAD" 
 ZONE T="TIME=1.797693134862e+308"
6.713457793512e+00 3.412536040947e+01 
6.755425188615e+00 3.412148295133e+01 
6.797519535348e+00 3.411756948097e+01 
7.136290737778e+00 3.412521003917e+01 
7.178258132881e+00 3.412133242891e+01 
7.220352479614e+00 3.411741880597e+01 
7.554895354917e+00 3.412506268050e+01 
7.596862750020e+00 3.412118491964e+01 
7.638957096754e+00 3.411727114564e+01 
7.969313924787e+00 3.412491827362e+01 
8.011281319890e+00 3.412104036366e+01 
8.053375666624e+00 3.411712644012e+01 
8.379588308807e+00 3.412477675968e+01 
8.421555703910e+00 3.412089870211e+01 
8.463650050644e+00 3.411698463052e+01 
8.785759950460e+00 3.412463808089e+01 
8.827727345563e+00 3.412075987719e+01 
8.869821692297e+00 3.411684565902e+01 
9.187869875883e+00 3.412450218061e+01 
9.229837270986e+00 3.412062383224e+01 
9.271931617719e+00 3.411670946895e+01 
9.585958702132e+00 3.412436900334e+01 
9.627926097235e+00 3.412049051174e+01 
9.670020443968e+00 3.411657600478e+01 
9.980066640145e+00 3.412423849468e+01 
1.002203403525e+01 3.412035986127e+01 
1.006412838198e+01 3.411644521209e+01 
1.037023349763e+01 3.412411060132e+01 
1.041220089273e+01 3.412023182753e+01 
1.045429523946e+01 3.411631703754e+01 
1.075649868449e+01 3.412398527103e+01 
1.079846607959e+01 3.412010635827e+01 
1.084056042632e+01 3.411619142887e+01 
1.113890122078e+01 3.412386245262e+01 
1.118086861588e+01 3.411998340226e+01 
1.122296296261e+01 3.411606833486e+01 
1.151747973142e+01 3.412374209592e+01 
1.155944712652e+01 3.411986290935e+01 
1.160154147325e+01 3.411594770531e+01 
1.189227245676e+01 3.412362415176e+01 
1.193423985186e+01 3.411974483033e+01 
1.197633419860e+01 3.411582949103e+01 
1.226331725491e+01 3.412350857195e+01 
1.230528465001e+01 3.411962911702e+01 
1.234737899674e+01 3.411571364381e+01 
1.263065160428e+01 3.412339530928e+01 
1.267261899938e+01 3.411951572217e+01 
1.271471334612e+01 3.411560011638e+01 
1.299431261104e+01 3.412328431745e+01 
1.303628000614e+01 3.411940459949e+01 
1.307837435288e+01 3.411548886246e+01 
1.335433700622e+01 3.412317555111e+01 
1.339630440132e+01 3.411929570361e+01 
1.343839874805e+01 3.411537983664e+01 
1.371076115833e+01 3.412306896580e+01 
1.375272855343e+01 3.411918899005e+01 
1.379482290017e+01 3.411527299444e+01 
1.406362107019e+01 3.412296451796e+01 
1.410558846529e+01 3.411908441524e+01 
1.414768281203e+01 3.411516829228e+01 
1.441295238366e+01 3.412286216488e+01 
1.445491977877e+01 3.411898193646e+01 
1.449701412550e+01 3.411506568742e+01 
1.475879038415e+01 3.412276186472e+01 
1.480075777926e+01 3.411888151186e+01 
1.484285212599e+01 3.411496513799e+01 
1.510117000259e+01 3.412266357645e+01 
1.514313739769e+01 3.411878310040e+01 
1.518523174443e+01 3.411486660296e+01 
1.544012582503e+01 3.412256725990e+01 
1.548209322014e+01 3.411868666188e+01 
1.552418756687e+01 3.411477004210e+01 
1.577569208917e+01 3.412247287565e+01 
1.581765948427e+01 3.411859215688e+01 
1.585975383100e+01 3.411467541599e+01 
1.610790269127e+01 3.412238038511e+01 
1.614987008638e+01 3.411849954680e+01 
1.619196443311e+01 3.411458268600e+01 
1.643679118776e+01 3.412228975042e+01 
1.647875858286e+01 3.411840879377e+01 
1.652085292959e+01 3.411449181426e+01 
1.676239079941e+01 3.412220093452e+01 
1.680435819452e+01 3.411831986070e+01 
1.684645254125e+01 3.411440276368e+01 
1.708473441540e+01 3.412211390105e+01 
1.712670181050e+01 3.411823271124e+01 
1.716879615723e+01 3.411431549787e+01 
1.740385459475e+01 3.412202861439e+01 
1.744582198985e+01 3.411814730975e+01 
1.748791633658e+01 3.411422998119e+01 
1.771978357286e+01 3.412194503963e+01 
1.776175096797e+01 3.411806362130e+01 
1.780384531470e+01 3.411414617872e+01 
1.803255326021e+01 3.412186314256e+01 
1.807452065532e+01 3.411798161169e+01 
1.811661500205e+01 3.411406405621e+01 
1.834219525140e+01 3.412178288964e+01 
1.838416264651e+01 3.411790124735e+01 
1.842625699324e+01 3.411398358011e+01 
1.864874082362e+01 3.412170424802e+01 
1.869070821872e+01 3.411782249542e+01 
1.873280256546e+01 3.411390471754e+01 
1.895222093782e+01 3.412162718549e+01 
1.899418833292e+01 3.411774532368e+01 
1.903628267966e+01 3.411382743626e+01 
1.925266625019e+01 3.412155167048e+01 
1.929463364529e+01 3.411766970056e+01 
1.933672799202e+01 3.411375170469e+01 
1.955010711040e+01 3.412147767205e+01 
1.959207450550e+01 3.411759559510e+01 
1.963416885224e+01 3.411367749187e+01 
1.984457356259e+01 3.412140515989e+01 
1.988654095769e+01 3.411752297698e+01 
1.992863530442e+01 3.411360476747e+01 
2.013609535136e+01 3.412133410429e+01 
2.017806274647e+01 3.411745181647e+01 
2.022015709320e+01 3.411353350173e+01 
2.042470192262e+01 3.412126447612e+01 
2.046666931772e+01 3.411738208444e+01 
2.050876366446e+01 3.411346366553e+01 
2.071042242686e+01 3.412119624684e+01 
2.075238982196e+01 3.411731375235e+01 
2.079448416870e+01 3.411339523031e+01 
2.099328572509e+01 3.412112938848e+01 
2.103525312019e+01 3.411724679220e+01 
2.107734746693e+01 3.411332816806e+01 
2.127332038937e+01 3.412106387363e+01 
2.131528778447e+01 3.411718117658e+01 
2.135738213121e+01 3.411326245137e+01 
2.155055470600e+01 3.412099967543e+01 
2.159252210111e+01 3.411711687862e+01 
2.163461644784e+01 3.411319805333e+01 
2.182501668122e+01 3.412093676753e+01 
2.186698407632e+01 3.411705387196e+01 
2.190907842306e+01 3.411313494761e+01 
2.209673403895e+01 3.412087512415e+01 
2.213870143405e+01 3.411699213079e+01 
2.218079578079e+01 3.411307310837e+01 
2.236573422386e+01 3.412081471998e+01 
2.240770161897e+01 3.411693162983e+01 
2.244979596570e+01 3.411301251030e+01 
2.263204440690e+01 3.412075553024e+01 
2.267401180200e+01 3.411687234426e+01 
2.271610614873e+01 3.411295312861e+01 
2.289569148550e+01 3.412069753065e+01 
2.293765888061e+01 3.411681424979e+01 
2.297975322734e+01 3.411289493897e+01 
2.315670209175e+01 3.412064069739e+01 
2.319866948686e+01 3.411675732260e+01 
2.324076383359e+01 3.411283791758e+01 
2.341510259234e+01 3.412058500713e+01 
2.345706998744e+01 3.411670153936e+01 
2.349916433418e+01 3.411278204106e+01 
2.367091908877e+01 3.412053043701e+01 
2.371288648387e+01 3.411664687718e+01 
2.375498083061e+01 3.411272728655e+01 
2.392417741997e+01 3.412047696462e+01 
2.396614481507e+01 3.411659331365e+01 
2.400823916180e+01 3.411267363161e+01 
2.417490316756e+01 3.412042456799e+01 
2.421687056266e+01 3.411654082680e+01 
2.425896490939e+01 3.411262105425e+01 
2.442312165832e+01 3.412037322560e+01 
2.446508905342e+01 3.411648939509e+01 
2.450718340016e+01 3.411256953295e+01 
2.466885796416e+01 3.412032291636e+01 
2.471082535926e+01 3.411643899742e+01 
2.475291970599e+01 3.411251904658e+01 
2.491213690709e+01 3.412027361959e+01 
2.495410430219e+01 3.411638961310e+01 
2.499619864893e+01 3.411246957445e+01 
2.515298306170e+01 3.412022531503e+01 
2.519495045680e+01 3.411634122187e+01 
2.523704480353e+01 3.411242109628e+01 
2.539142075479e+01 3.412017798282e+01 
2.543338814989e+01 3.411629380386e+01 
2.547548249662e+01 3.411237359221e+01 
2.562747407039e+01 3.412013160350e+01 
2.566944146550e+01 3.411624733960e+01 
2.571153581223e+01 3.411232704275e+01 
2.586116685194e+01 3.412008615801e+01 
2.590313424704e+01 3.411620181001e+01 
2.594522859378e+01 3.411228142880e+01 
2.609252270451e+01 3.412004162764e+01 
2.613449009962e+01 3.411615719639e+01 
2.617658444635e+01 3.411223673168e+01 
2.632156499954e+01 3.411999799408e+01 
2.636353239464e+01 3.411611348041e+01 
2.640562674137e+01 3.411219293302e+01 
2.654831687169e+01 3.411995523938e+01 
2.659028426680e+01 3.411607064412e+01 
2.663237861353e+01 3.411215001488e+01 
2.677280122621e+01 3.411991334594e+01 
2.681476862131e+01 3.411602866990e+01 
2.685686296804e+01 3.411210795963e+01 
2.699504073820e+01 3.411987229652e+01 
2.703700813331e+01 3.411598754050e+01 
2.707910248004e+01 3.411206675002e+01 
2.721505785473e+01 3.411983207422e+01 
2.725702524983e+01 3.411594723903e+01 
2.729911959656e+01 3.411202636913e+01 
2.743287479923e+01 3.411979266247e+01 
2.747484219433e+01 3.411590774890e+01 
2.751693654107e+01 3.411198680038e+01 
2.764851357348e+01 3.411975404505e+01 
2.769048096858e+01 3.411586905389e+01 
2.773257531532e+01 3.411194802753e+01 
2.786199595934e+01 3.411971620605e+01 
2.790396335444e+01 3.411583113806e+01 
2.794605770117e+01 3.411191003466e+01 
2.807334352056e+01 3.411967912988e+01 
2.811531091567e+01 3.411579398584e+01 
2.815740526240e+01 3.411187280614e+01 
2.828257760716e+01 3.411964280126e+01 
2.832454500227e+01 3.411575758192e+01 
2.836663934900e+01 3.411183632671e+01 
2.848971935444e+01 3.411960720521e+01 
2.853168674955e+01 3.411572191134e+01 
2.857378109628e+01 3.411180058135e+01 
2.869478968468e+01 3.411957232706e+01 
2.873675707979e+01 3.411568695940e+01 
2.877885142652e+01 3.411176555539e+01 
2.889780931137e+01 3.411953815244e+01 
2.893977670648e+01 3.411565271171e+01 
2.898187105321e+01 3.411173123443e+01 
2.909879874076e+01 3.411950466724e+01 
2.914076613587e+01 3.411561915419e+01 
2.918286048260e+01 3.411169760436e+01 
2.929777827603e+01 3.411947185765e+01 
2.933974567113e+01 3.411558627300e+01 
2.938184001786e+01 3.411166465135e+01 
2.949476801606e+01 3.411943971013e+01 
2.953673541116e+01 3.411555405460e+01 
2.957882975789e+01 3.411163236185e+01 
2.968978785958e+01 3.411940821143e+01 
2.973175525469e+01 3.411552248572e+01 