 TITLE = "Profiles along polylines"
 VARIABLES = "DIST" "HEAD" 
 ZONE T="TIME=0.000000000000e+00"
3.968249735690e+00 0.000000000000e+00 
4.001912285001e+00 0.000000000000e+00 
4.035676662991e+00 0.000000000000e+00 
4.391082679956e+00 0.000000000000e+00 
4.424745229267e+00 0.000000000000e+00 
4.458509607257e+00 0.000000000000e+00 
4.809687297095e+00 0.000000000000e+00 
4.843349846406e+00 0.000000000000e+00 
4.877114224396e+00 0.000000000000e+00 
5.224105866965e+00 0.000000000000e+00 
5.257768416276e+00 0.000000000000e+00 
5.291532794266e+00 0.000000000000e+00 
5.634380250984e+00 0.000000000000e+00 
5.668042800295e+00 0.000000000000e+00 
5.701807178285e+00 0.000000000000e+00 
6.040551892637e+00 0.000000000000e+00 
6.074214441948e+00 0.000000000000e+00 
6.107978819938e+00 0.000000000000e+00 
6.442661818059e+00 0.000000000000e+00 
6.476324367370e+00 0.000000000000e+00 
6.510088745360e+00 0.000000000000e+00 
6.840750644308e+00 0.000000000000e+00 
6.874413193619e+00 0.000000000000e+00 
6.908177571609e+00 0.000000000000e+00 
7.234858582321e+00 0.000000000000e+00 
7.268521131632e+00 0.000000000000e+00 
7.302285509622e+00 0.000000000000e+00 
7.625025439802e+00 0.000000000000e+00 
7.658687989114e+00 0.000000000000e+00 
7.692452367104e+00 0.000000000000e+00 
8.011290626662e+00 0.000000000000e+00 
8.044953175973e+00 0.000000000000e+00 
8.078717553963e+00 0.000000000000e+00 
8.393693162954e+00 0.000000000000e+00 
8.427355712265e+00 0.000000000000e+00 
8.461120090255e+00 0.000000000000e+00 
8.772271673593e+00 0.000000000000e+00 
8.805934222904e+00 0.000000000000e+00 
8.839698600894e+00 0.000000000000e+00 
9.147064398937e+00 0.000000000000e+00 
9.180726948248e+00 0.000000000000e+00 
9.214491326238e+00 0.000000000000e+00 
9.518109197083e+00 0.000000000000e+00 
9.551771746394e+00 0.000000000000e+00 
9.585536124384e+00 0.000000000000e+00 
9.885443546455e+00 0.000000000000e+00 
9.919106095766e+00 0.000000000000e+00 
9.952870473756e+00 0.000000000000e+00 
1.024910455322e+01 0.000000000000e+00 
1.028276710253e+01 0.000000000000e+00 
1.031653148052e+01 0.000000000000e+00 
1.060912894839e+01 0.000000000000e+00 
1.064279149770e+01 0.000000000000e+00 
1.067655587569e+01 0.000000000000e+00 
1.096555310050e+01 0.000000000000e+00 
1.099921564982e+01 0.000000000000e+00 
1.103298002781e+01 0.000000000000e+00 
1.131841301236e+01 0.000000000000e+00 
1.135207556168e+01 0.000000000000e+00 
1.138583993967e+01 0.000000000000e+00 
1.166774432584e+01 0.000000000000e+00 
1.170140687515e+01 0.000000000000e+00 
1.173517125314e+01 0.000000000000e+00 
1.201358232633e+01 0.000000000000e+00 
1.204724487564e+01 0.000000000000e+00 
1.208100925363e+01 0.000000000000e+00 
1.235596194476e+01 0.000000000000e+00 
1.238962449407e+01 0.000000000000e+00 
1.242338887206e+01 0.000000000000e+00 
1.269491776721e+01 0.000000000000e+00 
1.272858031652e+01 0.000000000000e+00 
1.276234469451e+01 0.000000000000e+00 
1.303048403134e+01 0.000000000000e+00 
1.306414658065e+01 0.000000000000e+00 
1.309791095864e+01 0.000000000000e+00 
1.336269463345e+01 0.000000000000e+00 
1.339635718276e+01 0.000000000000e+00 
1.343012156075e+01 0.000000000000e+00 
1.369158312993e+01 0.000000000000e+00 
1.372524567924e+01 0.000000000000e+00 
1.375901005723e+01 0.000000000000e+00 
1.401718274158e+01 0.000000000000e+00 
1.405084529090e+01 0.000000000000e+00 
1.408460966889e+01 0.000000000000e+00 
1.433952635757e+01 0.000000000000e+00 
1.437318890688e+01 0.000000000000e+00 
1.440695328487e+01 0.000000000000e+00 
1.465864653692e+01 0.000000000000e+00 
1.469230908623e+01 0.000000000000e+00 
1.472607346422e+01 0.000000000000e+00 
1.497457551503e+01 0.000000000000e+00 
1.500823806435e+01 0.000000000000e+00 
1.504200244234e+01 0.000000000000e+00 
1.528734520239e+01 0.000000000000e+00 
1.532100775170e+01 0.000000000000e+00 
1.535477212969e+01 0.000000000000e+00 
1.559698719357e+01 0.000000000000e+00 
1.563064974289e+01 0.000000000000e+00 
1.566441412088e+01 0.000000000000e+00 
1.590353276579e+01 0.000000000000e+00 
1.593719531510e+01 0.000000000000e+00 
1.597095969309e+01 0.000000000000e+00 
1.620701287999e+01 0.000000000000e+00 
1.624067542930e+01 0.000000000000e+00 
1.627443980729e+01 0.000000000000e+00 
1.650745819236e+01 0.000000000000e+00 
1.654112074167e+01 0.000000000000e+00 
1.657488511966e+01 0.000000000000e+00 
1.680489905257e+01 0.000000000000e+00 
1.683856160188e+01 0.000000000000e+00 
1.687232597987e+01 0.000000000000e+00 
1.709936550476e+01 0.000000000000e+00 
1.713302805407e+01 0.000000000000e+00 
1.716679243206e+01 0.000000000000e+00 
1.739088729353e+01 0.000000000000e+00 
1.742454984284e+01 0.000000000000e+00 
1.745831422083e+01 0.000000000000e+00 
1.767949386479e+01 0.000000000000e+00 
1.771315641410e+01 0.000000000000e+00 
1.774692079209e+01 0.000000000000e+00 
1.796521436903e+01 0.000000000000e+00 
1.799887691834e+01 0.000000000000e+00 
1.803264129633e+01 0.000000000000e+00 
1.824807766726e+01 0.000000000000e+00 
1.828174021657e+01 0.000000000000e+00 
1.831550459456e+01 0.000000000000e+00 
1.852811233154e+01 0.000000000000e+00 
1.856177488085e+01 0.000000000000e+00 
1.859553925884e+01 0.000000000000e+00 
1.880534664817e+01 0.000000000000e+00 
1.883900919748e+01 0.000000000000e+00 
1.887277357547e+01 0.000000000000e+00 
1.907980862339e+01 0.000000000000e+00 
1.911347117270e+01 0.000000000000e+00 
1.914723555069e+01 0.000000000000e+00 
1.935152598112e+01 0.000000000000e+00 
1.938518853043e+01 0.000000000000e+00 
1.941895290842e+01 0.000000000000e+00 
1.962052616603e+01 0.000000000000e+00 
1.965418871534e+01 0.000000000000e+00 
1.968795309333e+01 0.000000000000e+00 
1.988683634907e+01 0.000000000000e+00 
1.992049889838e+01 0.000000000000e+00 
1.995426327637e+01 0.000000000000e+00 
2.015048342767e+01 0.000000000000e+00 
2.018414597698e+01 0.000000000000e+00 
2.021791035497e+01 0.000000000000e+00 
2.041149403392e+01 0.000000000000e+00 
2.044515658324e+01 0.000000000000e+00 
2.047892096123e+01 0.000000000000e+00 
2.066989453451e+01 0.000000000000e+00 
2.070355708382e+01 0.000000000000e+00 
2.073732146181e+01 0.000000000000e+00 
2.092571103094e+01 0.000000000000e+00 
2.095937358025e+01 0.000000000000e+00 
2.099313795824e+01 0.000000000000e+00 
2.117896936214e+01 0.000000000000e+00 
2.121263191145e+01 0.000000000000e+00 
2.124639628944e+01 0.000000000000e+00 
2.142969510972e+01 0.000000000000e+00 
2.146335765904e+01 0.000000000000e+00 
2.149712203703e+01 0.000000000000e+00 
2.167791360049e+01 0.000000000000e+00 
2.171157614980e+01 0.000000000000e+00 
2.174534052779e+01 0.000000000000e+00 
2.192364990633e+01 0.000000000000e+00 
2.195731245564e+01 0.000000000000e+00 
2.199107683363e+01 0.000000000000e+00 
2.216692884926e+01 0.000000000000e+00 
2.220059139857e+01 0.000000000000e+00 
2.223435577656e+01 0.000000000000e+00 
2.240777500387e+01 0.000000000000e+00 
2.244143755318e+01 0.000000000000e+00 
2.247520193117e+01 0.000000000000e+00 
2.264621269695e+01 0.000000000000e+00 
2.267987524627e+01 0.000000000000e+00 
2.271363962426e+01 0.000000000000e+00 
2.288226601256e+01 0.000000000000e+00 
2.291592856187e+01 0.000000000000e+00 
2.294969293986e+01 0.000000000000e+00 
2.311595879411e+01 0.000000000000e+00 
2.314962134342e+01 0.000000000000e+00 
2.318338572141e+01 0.000000000000e+00 
2.334731464668e+01 0.000000000000e+00 
2.338097719599e+01 0.000000000000e+00 
2.341474157398e+01 0.000000000000e+00 
2.357635694171e+01 0.000000000000e+00 
2.361001949102e+01 0.000000000000e+00 
2.364378386901e+01 0.000000000000e+00 
2.380310881386e+01 0.000000000000e+00 
2.383677136317e+01 0.000000000000e+00 
2.387053574116e+01 0.000000000000e+00 
2.402759316838e+01 0.000000000000e+00 
2.406125571769e+01 0.000000000000e+00 
2.409502009568e+01 0.000000000000e+00 
2.424983268037e+01 0.000000000000e+00 
2.428349522968e+01 0.000000000000e+00 
2.431725960767e+01 0.000000000000e+00 
2.446984979690e+01 0.000000000000e+00 
2.450351234621e+01 0.000000000000e+00 
2.453727672420e+01 0.000000000000e+00 
2.468766674140e+01 0.000000000000e+00 
2.472132929071e+01 0.000000000000e+00 
2.475509366870e+01 0.000000000000e+00 
2.490330551565e+01 0.000000000000e+00 
2.493696806496e+01 0.000000000000e+00 
2.497073244295e+01 0.000000000000e+00 
2.511678790151e+01 0.000000000000e+00 
2.515045045082e+01 0.000000000000e+00 
2.518421482881e+01 0.000000000000e+00 
2.532813546273e+01 0.000000000000e+00 
2.536179801204e+01 0.000000000000e+00 
2.539556239003e+01 0.000000000000e+00 
2.553736954934e+01 0.000000000000e+00 
2.557103209865e+01 0.000000000000e+00 
2.560479647664e+01 0.000000000000e+00 
2.574451129662e+01 0.000000000000e+00 
2.577817384593e+01 0.000000000000e+00 
2.581193822392e+01 0.000000000000e+00 
2.594958162685e+01 0.000000000000e+00 
2.598324417617e+01 0.000000000000e+00 
2.601700855416e+01 0.000000000000e+00 
2.615260125354e+01 0.000000000000e+00 
2.618626380286e+01 0.000000000000e+00 
2.622002818085e+01 0.000000000000e+00 
2.635359068294e+01 0.000000000000e+00 
2.638725323225e+01 0.000000000000e+00 
2.642101761024e+01 0.000000000000e+00 
2.655257021820e+01 0.000000000000e+00 
2.658623276751e+01 0.000000000000e+00 
2.661999714550e+01 0.000000000000e+00 
2.674955995823e+01 0.000000000000e+00 
2.678322250754e+01 0.000000000000e+00 
2.681698688553e+01 0.000000000000e+00 
2.694457980176e+01 0.000000000000e+00 
2.697824235107e+01 0.000000000000e+00 
2.701200672906e+01 0.000000000000e+00 
2.713764944873e+01 0.000000000000e+00 
2.717131199805e+01 0.000000000000e+00 
2.720507637604e+01 0.000000000000e+00 
2.732878839916e+01 0.000000000000e+00 
2.736245094847e+01 0.000000000000e+00 
2.739621532646e+01 0.000000000000e+00 
2.751801595934e+01 0.000000000000e+00 
2.755167850865e+01 0.000000000000e+00 
2.758544288664e+01 0.000000000000e+00 
2.770535124359e+01 0.000000000000e+00 
2.773901379290e+01 0.000000000000e+00 
2.777277817089e+01 0.000000000000e+00 
2.789081317519e+01 0.000000000000e+00 
2.792447572450e+01 0.000000000000e+00 
2.795824010249e+01 0.000000000000e+00 
2.807442048766e+01 0.000000000000e+00 
2.810808303697e+01 0.000000000000e+00 
2.814184741496e+01 0.000000000000e+00 
2.825619172593e+01 0.000000000000e+00 
2.828985427524e+01 0.000000000000e+00 
2.832361865323e+01 0.000000000000e+00 
2.843614525011e+01 0.000000000000e+00 
2.846980779942e+01 0.000000000000e+00 
2.850357217741e+01 0.000000000000e+00 
2.861429923917e+01 0.000000000000e+00 
2.864796178848e+01 0.000000000000e+00 
2.868172616647e+01 0.000000000000e+00 
2.879067168933e+01 0.000000000000e+00 
2.882433423865e+01 0.000000000000e+00 
2.885809861664e+01 0.000000000000e+00 
2.896528041514e+01 0.000000000000e+00 
2.899894296445e+01 0.000000000000e+00 
2.903270734244e+01 0.000000000000e+00 
2.913814305306e+01 0.000000000000e+00 
2.917180560237e+01 0.000000000000e+00 
2.920556998036e+01 0.000000000000e+00 
2.930927706502e+01 0.000000000000e+00 
2.934293961433e+01 0.000000000000e+00 
2.937670399232e+01 0.000000000000e+00 
2.947869973669e+01 0.000000000000e+00 
2.951236228600e+01 0.000000000000e+00 
2.954612666399e+01 0.000000000000e+00 
2.964642818101e+01 0.000000000000e+00 
2.968009073033e+01 0.000000000000e+00 
2.971385510832e+01 0.000000000000e+00 
2.981247934163e+01 0.000000000000e+00 
2.984614189094e+01 0.000000000000e+00 
2.987990626893e+01 0.000000000000e+00 
2.997686999106e+01 0.000000000000e+00 
3.001053254037e+01 0.000000000000e+00 
3.004429691836e+01 0.000000000000e+00 
3.013961673408e+01 0.000000000000e+00 
3.017327928339e+01 0.000000000000e+00 
3.020704366138e+01 0.000000000000e+00 
3.030073600851e+01 0.000000000000e+00 
3.033439855782e+01 0.000000000000e+00 
3.036816293581e+01 0.000000000000e+00 
3.046024409113e+01 0.000000000000e+00 
3.049390664044e+01 0.000000000000e+00 
3.052767101843e+01 0.000000000000e+00 
3.061815709302e+01 0.000000000000e+00 
3.065181964234e+01 0.000000000000e+00 
3.068558402033e+01 0.000000000000e+00 
3.077449096300e+01 0.000000000000e+00 
3.080815351231e+01 0.000000000000e+00 
3.084191789030e+01 0.000000000000e+00 
3.092926149591e+01 0.000000000000e+00 
3.096292404522e+01 0.000000000000e+00 
3.099668842321e+01 0.000000000000e+00 
3.108248432538e+01 0.000000000000e+00 
3.111614687469e+01 0.000000000000e+00 
3.114991125268e+01 0.000000000000e+00 
3.123417492702e+01 0.000000000000e+00 
3.126783747634e+01 0.000000000000e+00 
3.130160185433e+01 0.000000000000e+00 
3.138434862155e+01 0.000000000000e+00 
3.141801117086e+01 0.000000000000e+00 
3.145177554885e+01 0.000000000000e+00 
3.153302057786e+01 0.000000000000e+00 
3.156668312717e+01 0.000000000000e+00 
3.160044750516e+01 0.000000000000e+00 
3.168020581348e+01 0.000000000000e+00 
3.171386836279e+01 0.000000000000e+00 
3.174763274078e+01 0.000000000000e+00 
3.182591919760e+01 0.000000000000e+00 
3.185958174691e+01 0.000000000000e+00 
3.189334612490e+01 0.000000000000e+00 
3.197017544877e+01 0.000000000000e+00 
3.200383799809e+01 0.000000000000e+00 
3.203760237608e+01 0.000000000000e+00 
3.211298913539e+01 0.000000000000e+00 
3.214665168470e+01 0.000000000000e+00 
3.218041606269e+01 0.000000000000e+00 
3.225437468641e+01 0.000000000000e+00 
3.228803723573e+01 0.000000000000e+00 
3.232180161372e+01 0.000000000000e+00 
3.239434638376e+01 0.000000000000e+00 
3.242800893307e+01 0.000000000000e+00 
3.246177331106e+01 0.000000000000e+00 
3.253291836268e+01 0.000000000000e+00 
3.256658091199e+01 0.000000000000e+00 
3.260034528998e+01 0.000000000000e+00 
3.267010462241e+01 0.000000000000e+00 
3.270376717172e+01 0.000000000000e+00 
3.273753154971e+01 0.000000000000e+00 
3.280591902111e+01 0.000000000000e+00 
3.283958157043e+01 0.000000000000e+00 
3.287334594842e+01 0.000000000000e+00 
3.294037527349e+01 0.000000000000e+00 
3.297403782281e+01 0.000000000000e+00 
3.300780220079e+01 0.000000000000e+00 
3.307348696145e+01 0.000000000000e+00 
3.310714951076e+01 0.000000000000e+00 
3.314091388875e+01 0.000000000000e+00 
3.320526753411e+01 0.000000000000e+00 
3.323893008343e+01 0.000000000000e+00 
3.327269446142e+01 0.000000000000e+00 
3.333573030271e+01 0.000000000000e+00 
3.336939285202e+01 0.000000000000e+00 
3.340315723001e+01 0.000000000000e+00 
3.346488844331e+01 0.000000000000e+00 
3.349855099262e+01 0.000000000000e+00 
3.353231537061e+01 0.000000000000e+00 
3.359275500210e+01 0.000000000000e+00 
3.362641755141e+01 0.000000000000e+00 
3.366018192940e+01 0.000000000000e+00 
3.371934289536e+01 0.000000000000e+00 
3.375300544468e+01 0.000000000000e+00 
3.378676982267e+01 0.000000000000e+00 
3.384466490950e+01 0.000000000000e+00 
3.387832745881e+01 0.000000000000e+00 
3.391209183680e+01 0.000000000000e+00 
3.396873370359e+01 0.000000000000e+00 
3.400239625290e+01 0.000000000000e+00 
3.403616063089e+01 0.000000000000e+00 
3.409156180933e+01 0.000000000000e+00 
3.412522435865e+01 0.000000000000e+00 
3.415898873664e+01 0.000000000000e+00 
3.421316163360e+01 0.000000000000e+00 
3.424682418291e+01 0.000000000000e+00 
3.428058856090e+01 0.000000000000e+00 
3.433354546090e+01 0.000000000000e+00 
3.436720801021e+01 0.000000000000e+00 
3.440097238820e+01 0.000000000000e+00 
3.445272545063e+01 0.000000000000e+00 
3.448638799994e+01 0.000000000000e+00 
3.452015237793e+01 0.000000000000e+00 
3.457071363958e+01 0.000000000000e+00 
3.460437618889e+01 0.000000000000e+00 
3.463814056688e+01 0.000000000000e+00 
3.468752194694e+01 0.000000000000e+00 
3.472118449625e+01 0.000000000000e+00 
3.475494887424e+01 0.000000000000e+00 
3.480316217147e+01 0.000000000000e+00 
3.483682472078e+01 0.000000000000e+00 
3.487058909877e+01 0.000000000000e+00 
3.491764599389e+01 0.000000000000e+00 
3.495130854320e+01 0.000000000000e+00 
3.498507292119e+01 0.000000000000e+00 
3.503098497662e+01 0.000000000000e+00 
3.506464752593e+01 0.000000000000e+00 
3.509841190392e+01 0.000000000000e+00 
3.514319056878e+01 0.000000000000e+00 
3.517685311809e+01 0.000000000000e+00 
3.521061749608e+01 0.000000000000e+00 
3.525427410576e+01 0.000000000000e+00 
3.528793665507e+01 0.000000000000e+00 
3.532170103306e+01 0.000000000000e+00 
3.536424680640e+01 0.000000000000e+00 
3.539790935571e+01 0.000000000000e+00 
3.543167373370e+01 0.000000000000e+00 
3.547311978043e+01 0.000000000000e+00 
3.550678232975e+01 0.000000000000e+00 
3.554054670774e+01 0.000000000000e+00 
3.558090402548e+01 0.000000000000e+00 
3.561456657479e+01 0.000000000000e+00 
3.564833095278e+01 0.000000000000e+00 
3.568761042668e+01 0.000000000000e+00 
3.572127297599e+01 0.000000000000e+00 
3.575503735398e+01 0.000000000000e+00 
3.579324976414e+01 0.000000000000e+00 
3.582691231345e+01 0.000000000000e+00 
3.586067669144e+01 0.000000000000e+00 
3.589783270982e+01 0.000000000000e+00 
3.593149525913e+01 0.000000000000e+00 
3.596525963712e+01 0.000000000000e+00 
3.600136982447e+01 0.000000000000e+00 
3.603503237379e+01 0.000000000000e+00 
3.606879675178e+01 0.000000000000e+00 
3.610387156772e+01 0.000000000000e+00 
3.613753411703e+01 0.000000000000e+00 
3.617129849502e+01 0.000000000000e+00 
3.620534829475e+01 0.000000000000e+00 
3.623901084406e+01 0.000000000000e+00 
3.627277522205e+01 0.000000000000e+00 
3.630581025333e+01 0.000000000000e+00 
3.633947280264e+01 0.000000000000e+00 
3.637323718063e+01 0.000000000000e+00 
3.640526759367e+01 0.000000000000e+00 
3.643893014298e+01 0.000000000000e+00 
3.647269452097e+01 0.000000000000e+00 
3.650373036257e+01 0.000000000000e+00 
3.653739291188e+01 0.000000000000e+00 
3.657115728987e+01 0.000000000000e+00 
3.660120850291e+01 0.000000000000e+00 
3.663487105222e+01 0.000000000000e+00 
3.666863543021e+01 0.000000000000e+00 
3.669771186089e+01 0.000000000000e+00 
3.673137441021e+01 0.000000000000e+00 
3.676513878820e+01 0.000000000000e+00 
3.679325018537e+01 0.000000000000e+00 
3.682691273468e+01 0.000000000000e+00 
3.686067711267e+01 0.000000000000e+00 
3.688783312719e+01 0.000000000000e+00 
3.692149567650e+01 0.000000000000e+00 
3.695526005449e+01 0.000000000000e+00 
3.698147023855e+01 0.000000000000e+00 
3.701513278786e+01 0.000000000000e+00 
3.704889716585e+01 0.000000000000e+00 
3.707417097756e+01 0.000000000000e+00 
3.710783352688e+01 0.000000000000e+00 
3.714159790487e+01 0.000000000000e+00 
3.716594471014e+01 0.000000000000e+00 
3.719960725945e+01 0.000000000000e+00 
3.723337163744e+01 0.000000000000e+00 
3.725680070661e+01 0.000000000000e+00 
3.729046325592e+01 0.000000000000e+00 
3.732422763391e+01 0.000000000000e+00 
3.734674814365e+01 0.000000000000e+00 
3.738041069296e+01 0.000000000000e+00 
3.741417507095e+01 0.000000000000e+00 
3.743579610611e+01 0.000000000000e+00 
3.746945865542e+01 0.000000000000e+00 
3.750322303341e+01 0.000000000000e+00 
3.752395358888e+01 0.000000000000e+00 
3.755761613819e+01 0.000000000000e+00 
3.759138051618e+01 0.000000000000e+00 
3.761122949603e+01 0.000000000000e+00 
3.764489204534e+01 0.000000000000e+00 
3.767865642333e+01 0.000000000000e+00 
3.769763264270e+01 0.000000000000e+00 
3.773129519201e+01 0.000000000000e+00 
3.776505957000e+01 0.000000000000e+00 
3.778317175941e+01 0.000000000000e+00 
3.781683430872e+01 0.000000000000e+00 
3.785059868671e+01 0.000000000000e+00 
3.786785548594e+01 0.000000000000e+00 
3.790151803525e+01 0.000000000000e+00 
3.793528241324e+01 0.000000000000e+00 
3.795169237319e+01 0.000000000000e+00 
3.798535492250e+01 0.000000000000e+00 
3.801911930049e+01 0.000000000000e+00 
3.803469089012e+01 0.000000000000e+00 
3.806835343943e+01 0.000000000000e+00 
3.810211781742e+01 0.000000000000e+00 
3.811685942276e+01 0.000000000000e+00 
3.815052197207e+01 0.000000000000e+00 
3.818428635006e+01 0.000000000000e+00 
3.819820627070e+01 0.000000000000e+00 
3.823186882001e+01 0.000000000000e+00 
3.826563319800e+01 0.000000000000e+00 
3.827873965141e+01 0.000000000000e+00 
3.831240220073e+01 0.000000000000e+00 
3.834616657872e+01 0.000000000000e+00 
3.835846769926e+01 0.000000000000e+00 
3.839213024857e+01 0.000000000000e+00 
3.842589462656e+01 0.000000000000e+00 
3.843739846457e+01 0.000000000000e+00 
3.847106101388e+01 0.000000000000e+00 
3.850482539187e+01 0.000000000000e+00 
3.851553992048e+01 0.000000000000e+00 
3.854920246979e+01 0.000000000000e+00 
3.858296684778e+01 0.000000000000e+00 
3.859289996190e+01 0.000000000000e+00 
3.862656251121e+01 0.000000000000e+00 
3.866032688920e+01 0.000000000000e+00 
3.866948640449e+01 0.000000000000e+00 
3.870314895380e+01 0.000000000000e+00 
3.873691333179e+01 0.000000000000e+00 
3.874530698360e+01 0.000000000000e+00 
3.877896953292e+01 0.000000000000e+00 
3.881273391091e+01 0.000000000000e+00 
3.882036935593e+01 0.000000000000e+00 
3.885403190524e+01 0.000000000000e+00 
3.888779628323e+01 0.000000000000e+00 
3.889468110358e+01 0.000000000000e+00 
3.892834365290e+01 0.000000000000e+00 
3.896210803089e+01 0.000000000000e+00 
3.896824973569e+01 0.000000000000e+00 
3.900191228500e+01 0.000000000000e+00 
3.903567666299e+01 0.000000000000e+00 
 TITLE = "Profiles along polylines"
 VARIABLES = "DIST" "HEAD" 
 ZONE T="TIME=1.797693134862e+308"
3.968249735690e+00 3.432649242571e+01 
4.001912285001e+00 3.432465238123e+01 
4.035676662991e+00 3.432279115115e+01 
4.391082679956e+00 3.432635200492e+01 
4.424745229267e+00 3.432451183845e+01 
4.458509607257e+00 3.432265048601e+01 
4.809687297095e+00 3.432621449616e+01 
4.843349846406e+00 3.432437420893e+01 
4.877114224396e+00 3.432251273535e+01 
5.224105866965e+00 3.432607984095e+01 
5.257768416276e+00 3.432423943416e+01 
5.291532794266e+00 3.432237784066e+01 
5.634380250984e+00 3.432594798138e+01 
5.668042800295e+00 3.432410745622e+01 
5.701807178285e+00 3.432224574399e+01 
6.040551892637e+00 3.432581886055e+01 
6.074214441948e+00 3.432397821820e+01 
6.107978819938e+00 3.432211638843e+01 
6.442661818059e+00 3.432569242272e+01 
6.476324367370e+00 3.432385166435e+01 
6.510088745360e+00 3.432198971821e+01 
6.840750644308e+00 3.432556861330e+01 
6.874413193619e+00 3.432372774008e+01 
6.908177571609e+00 3.432186567874e+01 
7.234858582321e+00 3.432544737885e+01 
7.268521131632e+00 3.432360639191e+01 
7.302285509622e+00 3.432174421652e+01 
7.625025439802e+00 3.432532866696e+01 
7.658687989114e+00 3.432348756746e+01 
7.692452367104e+00 3.432162527915e+01 
8.011290626662e+00 3.432521242635e+01 
8.044953175973e+00 3.432337121540e+01 
8.078717553963e+00 3.432150881531e+01 
8.393693162954e+00 3.432509860672e+01 
8.427355712265e+00 3.432325728544e+01 
8.461120090255e+00 3.432139477469e+01 
8.772271673593e+00 3.432498715882e+01 
8.805934222904e+00 3.432314572832e+01 
8.839698600894e+00 3.432128310800e+01 
9.147064398937e+00 3.432487803439e+01 
9.180726948248e+00 3.432303649574e+01 
9.214491326238e+00 3.432117376697e+01 
9.518109197083e+00 3.432477118611e+01 
9.551771746394e+00 3.432292954041e+01 
9.585536124384e+00 3.432106670426e+01 
9.885443546455e+00 3.432466656766e+01 
9.919106095766e+00 3.432282481598e+01 
9.952870473756e+00 3.432096187352e+01 
1.024910455322e+01 3.432456413362e+01 
1.028276710253e+01 3.432272227702e+01 
1.031653148052e+01 3.432085922932e+01 
1.060912894839e+01 3.432446383950e+01 
1.064279149770e+01 3.432262187902e+01 
1.067655587569e+01 3.432075872713e+01 
1.096555310050e+01 3.432436564169e+01 
1.099921564982e+01 3.432252357838e+01 
1.103298002781e+01 3.432066032334e+01 
1.131841301236e+01 3.432426949748e+01 
1.135207556168e+01 3.432242733236e+01 
1.138583993967e+01 3.432056397521e+01 
1.166774432584e+01 3.432417536500e+01 
1.170140687515e+01 3.432233309909e+01 
1.173517125314e+01 3.432046964084e+01 
1.201358232633e+01 3.432408320324e+01 
1.204724487564e+01 3.432224083754e+01 
1.208100925363e+01 3.432037727921e+01 
1.235596194476e+01 3.432399297200e+01 
1.238962449407e+01 3.432215050752e+01 
1.242338887206e+01 3.432028685011e+01 
1.269491776721e+01 3.432390463190e+01 
1.272858031652e+01 3.432206206962e+01 
1.276234469451e+01 3.432019831412e+01 
1.303048403134e+01 3.432381814435e+01 
1.306414658065e+01 3.432197548525e+01 
1.309791095864e+01 3.432011163264e+01 
1.336269463345e+01 3.432373347153e+01 
1.339635718276e+01 3.432189071659e+01 
1.343012156075e+01 3.432002676784e+01 
1.369158312993e+01 3.432365057641e+01 
1.372524567924e+01 3.432180772658e+01 
1.375901005723e+01 3.431994368264e+01 
1.401718274158e+01 3.432356942268e+01 
1.405084529090e+01 3.432172647890e+01 
1.408460966889e+01 3.431986234074e+01 
1.433952635757e+01 3.432348997475e+01 
1.437318890688e+01 3.432164693798e+01 
1.440695328487e+01 3.431978270653e+01 
1.465864653692e+01 3.432341219779e+01 
1.469230908623e+01 3.432156906894e+01 
1.472607346422e+01 3.431970474514e+01 
1.497457551503e+01 3.432333605764e+01 
1.500823806435e+01 3.432149283763e+01 
1.504200244234e+01 3.431962842240e+01 
1.528734520239e+01 3.432326152083e+01 
1.532100775170e+01 3.432141821058e+01 
1.535477212969e+01 3.431955370484e+01 
1.559698719357e+01 3.432318855458e+01 
1.563064974289e+01 3.432134515499e+01 
1.566441412088e+01 3.431948055964e+01 
1.590353276579e+01 3.432311712675e+01 
1.593719531510e+01 3.432127363872e+01 
1.597095969309e+01 3.431940895466e+01 
1.620701287999e+01 3.432304720588e+01 
1.624067542930e+01 3.432120363029e+01 
1.627443980729e+01 3.431933885840e+01 
1.650745819236e+01 3.432297876112e+01 
1.654112074167e+01 3.432113509884e+01 
1.657488511966e+01 3.431927024000e+01 
1.680489905257e+01 3.432291176224e+01 
1.683856160188e+01 3.432106801414e+01 
1.687232597987e+01 3.431920306923e+01 
1.709936550476e+01 3.432284617963e+01 
1.713302805407e+01 3.432100234658e+01 
1.716679243206e+01 3.431913731644e+01 
1.739088729353e+01 3.432278198428e+01 
1.742454984284e+01 3.432093806712e+01 
1.745831422083e+01 3.431907295262e+01 
1.767949386479e+01 3.432271914777e+01 
1.771315641410e+01 3.432087514733e+01 
1.774692079209e+01 3.431900994931e+01 
1.796521436903e+01 3.432265764223e+01 
1.799887691834e+01 3.432081355936e+01 
1.803264129633e+01 3.431894827865e+01 
1.824807766726e+01 3.432259744038e+01 
1.828174021657e+01 3.432075327589e+01 
1.831550459456e+01 3.431888791332e+01 
1.852811233154e+01 3.432253851547e+01 
1.856177488085e+01 3.432069427019e+01 
1.859553925884e+01 3.431882882658e+01 
1.880534664817e+01 3.432248084130e+01 
1.883900919748e+01 3.432063651603e+01 
1.887277357547e+01 3.431877099219e+01 
1.907980862339e+01 3.432242439221e+01 
1.911347117270e+01 3.432057998775e+01 
1.914723555069e+01 3.431871438448e+01 
1.935152598112e+01 3.432236914304e+01 
1.938518853043e+01 3.432052466018e+01 
1.941895290842e+01 3.431865897828e+01 
1.962052616603e+01 3.432231506914e+01 
1.965418871534e+01 3.432047050867e+01 
1.968795309333e+01 3.431860474892e+01 
1.988683634907e+01 3.432226214637e+01 
1.992049889838e+01 3.432041750906e+01 
1.995426327637e+01 3.431855167224e+01 
2.015048342767e+01 3.432221035107e+01 
2.018414597698e+01 3.432036563770e+01 
2.021791035497e+01 3.431849972458e+01 
2.041149403392e+01 3.432215966006e+01 
2.044515658324e+01 3.432031487138e+01 
2.047892096123e+01 3.431844888273e+01 
2.066989453451e+01 3.432211005064e+01 
2.070355708382e+01 3.432026518740e+01 
2.073732146181e+01 3.431839912397e+01 
2.092571103094e+01 3.432206150054e+01 
2.095937358025e+01 3.432021656349e+01 
2.099313795824e+01 3.431835042603e+01 
2.117896936214e+01 3.432201398796e+01 
2.121263191145e+01 3.432016897785e+01 
2.124639628944e+01 3.431830276709e+01 
2.142969510972e+01 3.432196749155e+01 
2.146335765904e+01 3.432012240910e+01 
2.149712203703e+01 3.431825612578e+01 
2.167791360049e+01 3.432192199038e+01 
2.171157614980e+01 3.432007683631e+01 
2.174534052779e+01 3.431821048116e+01 
2.192364990633e+01 3.432187746394e+01 
2.195731245564e+01 3.432003223897e+01 
2.199107683363e+01 3.431816581271e+01 
2.216692884926e+01 3.432183389215e+01 
2.220059139857e+01 3.431998859699e+01 
2.223435577656e+01 3.431812210031e+01 
2.240777500387e+01 3.432179125531e+01 
2.244143755318e+01 3.431994589066e+01 
2.247520193117e+01 3.431807932429e+01 
2.264621269695e+01 3.432174953415e+01 
2.267987524627e+01 3.431990410070e+01 
2.271363962426e+01 3.431803746533e+01 
2.288226601256e+01 3.432170870976e+01 
2.291592856187e+01 3.431986320821e+01 
2.294969293986e+01 3.431799650452e+01 
2.311595879411e+01 3.432166876365e+01 
2.314962134342e+01 3.431982319467e+01 
2.318338572141e+01 3.431795642335e+01 
2.334731464668e+01 3.432162967767e+01 
2.338097719599e+01 3.431978404194e+01 
2.341474157398e+01 3.431791720367e+01 
2.357635694171e+01 3.432159143405e+01 
2.361001949102e+01 3.431974573223e+01 
2.364378386901e+01 3.431787882768e+01 
2.380310881386e+01 3.432155401538e+01 
2.383677136317e+01 3.431970824815e+01 
2.387053574116e+01 3.431784127797e+01 
2.402759316838e+01 3.432151740462e+01 
2.406125571769e+01 3.431967157262e+01 
2.409502009568e+01 3.431780453748e+01 
2.424983268037e+01 3.432148158505e+01 
2.428349522968e+01 3.431963568892e+01 
2.431725960767e+01 3.431776858947e+01 
2.446984979690e+01 3.432144654029e+01 
2.450351234621e+01 3.431960058069e+01 
2.453727672420e+01 3.431773341756e+01 
2.468766674140e+01 3.432141225431e+01 
2.472132929071e+01 3.431956623186e+01 
2.475509366870e+01 3.431769900570e+01 
2.490330551565e+01 3.432137871140e+01 
2.493696806496e+01 3.431953262674e+01 
2.497073244295e+01 3.431766533817e+01 
2.511678790151e+01 3.432134589616e+01 
2.515045045082e+01 3.431949974990e+01 
2.518421482881e+01 3.431763239956e+01 
2.532813546273e+01 3.432131379351e+01 
2.536179801204e+01 3.431946758627e+01 
2.539556239003e+01 3.431760017476e+01 
2.553736954934e+01 3.432128238867e+01 
2.557103209865e+01 3.431943612106e+01 
2.560479647664e+01 3.431756864900e+01 
2.574451129662e+01 3.432125166717e+01 
2.577817384593e+01 3.431940533979e+01 
2.581193822392e+01 3.431753780779e+01 
2.594958162685e+01 3.432122161482e+01 
2.598324417617e+01 3.431937522828e+01 
2.601700855416e+01 3.431750763692e+01 
2.615260125354e+01 3.432119221772e+01 
2.618626380286e+01 3.431934577261e+01 
2.622002818085e+01 3.431747812250e+01 
2.635359068294e+01 3.432116346228e+01 
2.638725323225e+01 3.431931695918e+01 
2.642101761024e+01 3.431744925090e+01 
2.655257021820e+01 3.432113533515e+01 
2.658623276751e+01 3.431928877463e+01 
2.661999714550e+01 3.431742100878e+01 
2.674955995823e+01 3.432110782326e+01 
2.678322250754e+01 3.431926120591e+01 
2.681698688553e+01 3.431739338305e+01 
2.694457980176e+01 3.432108091383e+01 
2.697824235107e+01 3.431923424021e+01 