 TITLE = "Profiles along polylines"
 VARIABLES = "DIST" "HEAD" 
 ZONE T="TIME=0.000000000000e+00"
3.475324289196e+00 0.000000000000e+00 
3.507495747585e+00 0.000000000000e+00 
3.539764523650e+00 0.000000000000e+00 
3.898157233462e+00 0.000000000000e+00 
3.930328691850e+00 0.000000000000e+00 
3.962597467915e+00 0.000000000000e+00 
4.316761850601e+00 0.000000000000e+00 
4.348933308990e+00 0.000000000000e+00 
4.381202085055e+00 0.000000000000e+00 
4.731180420471e+00 0.000000000000e+00 
4.763351878859e+00 0.000000000000e+00 
4.795620654924e+00 0.000000000000e+00 
5.141454804490e+00 0.000000000000e+00 
5.173626262879e+00 0.000000000000e+00 
5.205895038944e+00 0.000000000000e+00 
5.547626446143e+00 0.000000000000e+00 
5.579797904532e+00 0.000000000000e+00 
5.612066680597e+00 0.000000000000e+00 
5.949736371565e+00 0.000000000000e+00 
5.981907829954e+00 0.000000000000e+00 
6.014176606019e+00 0.000000000000e+00 
6.347825197814e+00 0.000000000000e+00 
6.379996656203e+00 0.000000000000e+00 
6.412265432267e+00 0.000000000000e+00 
6.741933135827e+00 0.000000000000e+00 
6.774104594216e+00 0.000000000000e+00 
6.806373370280e+00 0.000000000000e+00 
7.132099993308e+00 0.000000000000e+00 
7.164271451697e+00 0.000000000000e+00 
7.196540227762e+00 0.000000000000e+00 
7.518365180168e+00 0.000000000000e+00 
7.550536638557e+00 0.000000000000e+00 
7.582805414622e+00 0.000000000000e+00 
7.900767716460e+00 0.000000000000e+00 
7.932939174849e+00 0.000000000000e+00 
7.965207950914e+00 0.000000000000e+00 
8.279346227098e+00 0.000000000000e+00 
8.311517685487e+00 0.000000000000e+00 
8.343786461552e+00 0.000000000000e+00 
8.654138952443e+00 0.000000000000e+00 
8.686310410832e+00 0.000000000000e+00 
8.718579186897e+00 0.000000000000e+00 
9.025183750588e+00 0.000000000000e+00 
9.057355208977e+00 0.000000000000e+00 
9.089623985042e+00 0.000000000000e+00 
9.392518099960e+00 0.000000000000e+00 
9.424689558349e+00 0.000000000000e+00 
9.456958334414e+00 0.000000000000e+00 
9.756179106722e+00 0.000000000000e+00 
9.788350565111e+00 0.000000000000e+00 
9.820619341175e+00 0.000000000000e+00 
1.011620350190e+01 0.000000000000e+00 
1.014837496029e+01 0.000000000000e+00 
1.018064373635e+01 0.000000000000e+00 
1.047262765401e+01 0.000000000000e+00 
1.050479911240e+01 0.000000000000e+00 
1.053706788846e+01 0.000000000000e+00 
1.082548756587e+01 0.000000000000e+00 
1.085765902426e+01 0.000000000000e+00 
1.088992780032e+01 0.000000000000e+00 
1.117481887934e+01 0.000000000000e+00 
1.120699033773e+01 0.000000000000e+00 
1.123925911380e+01 0.000000000000e+00 
1.152065687983e+01 0.000000000000e+00 
1.155282833822e+01 0.000000000000e+00 
1.158509711429e+01 0.000000000000e+00 
1.186303649827e+01 0.000000000000e+00 
1.189520795666e+01 0.000000000000e+00 
1.192747673272e+01 0.000000000000e+00 
1.220199232071e+01 0.000000000000e+00 
1.223416377910e+01 0.000000000000e+00 
1.226643255517e+01 0.000000000000e+00 
1.253755858485e+01 0.000000000000e+00 
1.256973004323e+01 0.000000000000e+00 
1.260199881930e+01 0.000000000000e+00 
1.286976918695e+01 0.000000000000e+00 
1.290194064534e+01 0.000000000000e+00 
1.293420942141e+01 0.000000000000e+00 
1.319865768344e+01 0.000000000000e+00 
1.323082914182e+01 0.000000000000e+00 
1.326309791789e+01 0.000000000000e+00 
1.352425729509e+01 0.000000000000e+00 
1.355642875348e+01 0.000000000000e+00 
1.358869752954e+01 0.000000000000e+00 
1.384660091107e+01 0.000000000000e+00 
1.387877236946e+01 0.000000000000e+00 
1.391104114553e+01 0.000000000000e+00 
1.416572109042e+01 0.000000000000e+00 
1.419789254881e+01 0.000000000000e+00 
1.423016132488e+01 0.000000000000e+00 
1.448165006854e+01 0.000000000000e+00 
1.451382152693e+01 0.000000000000e+00 
1.454609030299e+01 0.000000000000e+00 
1.479441975589e+01 0.000000000000e+00 
1.482659121428e+01 0.000000000000e+00 
1.485885999034e+01 0.000000000000e+00 
1.510406174708e+01 0.000000000000e+00 
1.513623320547e+01 0.000000000000e+00 
1.516850198153e+01 0.000000000000e+00 
1.541060731930e+01 0.000000000000e+00 
1.544277877769e+01 0.000000000000e+00 
1.547504755375e+01 0.000000000000e+00 
1.571408743350e+01 0.000000000000e+00 
1.574625889189e+01 0.000000000000e+00 
1.577852766795e+01 0.000000000000e+00 
1.601453274586e+01 0.000000000000e+00 
1.604670420425e+01 0.000000000000e+00 
1.607897298032e+01 0.000000000000e+00 
1.631197360608e+01 0.000000000000e+00 
1.634414506447e+01 0.000000000000e+00 
1.637641384053e+01 0.000000000000e+00 
1.660644005826e+01 0.000000000000e+00 
1.663861151665e+01 0.000000000000e+00 
1.667088029271e+01 0.000000000000e+00 
1.689796184704e+01 0.000000000000e+00 
1.693013330543e+01 0.000000000000e+00 
1.696240208149e+01 0.000000000000e+00 
1.718656841830e+01 0.000000000000e+00 
1.721873987668e+01 0.000000000000e+00 
1.725100865275e+01 0.000000000000e+00 
1.747228892254e+01 0.000000000000e+00 
1.750446038093e+01 0.000000000000e+00 
1.753672915699e+01 0.000000000000e+00 
1.775515222077e+01 0.000000000000e+00 
1.778732367915e+01 0.000000000000e+00 
1.781959245522e+01 0.000000000000e+00 
1.803518688504e+01 0.000000000000e+00 
1.806735834343e+01 0.000000000000e+00 
1.809962711950e+01 0.000000000000e+00 
1.831242120168e+01 0.000000000000e+00 
1.834459266007e+01 0.000000000000e+00 
1.837686143613e+01 0.000000000000e+00 
1.858688317689e+01 0.000000000000e+00 
1.861905463528e+01 0.000000000000e+00 
1.865132341135e+01 0.000000000000e+00 
1.885860053462e+01 0.000000000000e+00 
1.889077199301e+01 0.000000000000e+00 
1.892304076908e+01 0.000000000000e+00 
1.912760071954e+01 0.000000000000e+00 
1.915977217793e+01 0.000000000000e+00 
1.919204095399e+01 0.000000000000e+00 
1.939391090257e+01 0.000000000000e+00 
1.942608236096e+01 0.000000000000e+00 
1.945835113702e+01 0.000000000000e+00 
1.965755798118e+01 0.000000000000e+00 
1.968972943957e+01 0.000000000000e+00 
1.972199821563e+01 0.000000000000e+00 
1.991856858743e+01 0.000000000000e+00 
1.995074004582e+01 0.000000000000e+00 
1.998300882188e+01 0.000000000000e+00 
2.017696908801e+01 0.000000000000e+00 
2.020914054640e+01 0.000000000000e+00 
2.024140932247e+01 0.000000000000e+00 
2.043278558445e+01 0.000000000000e+00 
2.046495704283e+01 0.000000000000e+00 
2.049722581890e+01 0.000000000000e+00 
2.068604391564e+01 0.000000000000e+00 
2.071821537403e+01 0.000000000000e+00 
2.075048415009e+01 0.000000000000e+00 
2.093676966323e+01 0.000000000000e+00 
2.096894112162e+01 0.000000000000e+00 
2.100120989768e+01 0.000000000000e+00 
2.118498815399e+01 0.000000000000e+00 
2.121715961238e+01 0.000000000000e+00 
2.124942838845e+01 0.000000000000e+00 
2.143072445983e+01 0.000000000000e+00 
2.146289591822e+01 0.000000000000e+00 
2.149516469428e+01 0.000000000000e+00 
2.167400340276e+01 0.000000000000e+00 
2.170617486115e+01 0.000000000000e+00 
2.173844363722e+01 0.000000000000e+00 
2.191484955737e+01 0.000000000000e+00 
2.194702101576e+01 0.000000000000e+00 
2.197928979183e+01 0.000000000000e+00 
2.215328725046e+01 0.000000000000e+00 
2.218545870885e+01 0.000000000000e+00 
2.221772748491e+01 0.000000000000e+00 
2.238934056607e+01 0.000000000000e+00 
2.242151202446e+01 0.000000000000e+00 
2.245378080052e+01 0.000000000000e+00 
2.262303334762e+01 0.000000000000e+00 
2.265520480600e+01 0.000000000000e+00 
2.268747358207e+01 0.000000000000e+00 
2.285438920019e+01 0.000000000000e+00 
2.288656065858e+01 0.000000000000e+00 
2.291882943464e+01 0.000000000000e+00 
2.308343149521e+01 0.000000000000e+00 
2.311560295360e+01 0.000000000000e+00 
2.314787172967e+01 0.000000000000e+00 
2.331018336737e+01 0.000000000000e+00 
2.334235482576e+01 0.000000000000e+00 
2.337462360182e+01 0.000000000000e+00 
2.353466772188e+01 0.000000000000e+00 
2.356683918027e+01 0.000000000000e+00 
2.359910795634e+01 0.000000000000e+00 
2.375690723388e+01 0.000000000000e+00 
2.378907869227e+01 0.000000000000e+00 
2.382134746833e+01 0.000000000000e+00 
2.397692435040e+01 0.000000000000e+00 
2.400909580879e+01 0.000000000000e+00 
2.404136458485e+01 0.000000000000e+00 
2.419474129491e+01 0.000000000000e+00 
2.422691275329e+01 0.000000000000e+00 
2.425918152936e+01 0.000000000000e+00 
2.441038006916e+01 0.000000000000e+00 
2.444255152754e+01 0.000000000000e+00 
2.447482030361e+01 0.000000000000e+00 
2.462386245501e+01 0.000000000000e+00 
2.465603391340e+01 0.000000000000e+00 
2.468830268946e+01 0.000000000000e+00 
2.483521001624e+01 0.000000000000e+00 
2.486738147463e+01 0.000000000000e+00 
2.489965025069e+01 0.000000000000e+00 
2.504444410284e+01 0.000000000000e+00 
2.507661556123e+01 0.000000000000e+00 
2.510888433729e+01 0.000000000000e+00 
2.525158585012e+01 0.000000000000e+00 
2.528375730851e+01 0.000000000000e+00 
2.531602608457e+01 0.000000000000e+00 
2.545665618036e+01 0.000000000000e+00 
2.548882763875e+01 0.000000000000e+00 
2.552109641481e+01 0.000000000000e+00 
2.565967580705e+01 0.000000000000e+00 
2.569184726544e+01 0.000000000000e+00 
2.572411604150e+01 0.000000000000e+00 
2.586066523644e+01 0.000000000000e+00 
2.589283669483e+01 0.000000000000e+00 
2.592510547089e+01 0.000000000000e+00 
2.605964477170e+01 0.000000000000e+00 
2.609181623009e+01 0.000000000000e+00 
2.612408500616e+01 0.000000000000e+00 
2.625663451174e+01 0.000000000000e+00 
2.628880597012e+01 0.000000000000e+00 
2.632107474619e+01 0.000000000000e+00 
2.645165435526e+01 0.000000000000e+00 
2.648382581365e+01 0.000000000000e+00 
2.651609458972e+01 0.000000000000e+00 
2.664472400224e+01 0.000000000000e+00 
2.667689546063e+01 0.000000000000e+00 
2.670916423669e+01 0.000000000000e+00 
2.683586295266e+01 0.000000000000e+00 
2.686803441105e+01 0.000000000000e+00 
2.690030318712e+01 0.000000000000e+00 
2.702509051285e+01 0.000000000000e+00 
2.705726197123e+01 0.000000000000e+00 
2.708953074730e+01 0.000000000000e+00 
2.721242579709e+01 0.000000000000e+00 
2.724459725548e+01 0.000000000000e+00 
2.727686603155e+01 0.000000000000e+00 
2.739788772869e+01 0.000000000000e+00 
2.743005918708e+01 0.000000000000e+00 
2.746232796315e+01 0.000000000000e+00 
2.758149504116e+01 0.000000000000e+00 
2.761366649955e+01 0.000000000000e+00 
2.764593527561e+01 0.000000000000e+00 
2.776326627943e+01 0.000000000000e+00 
2.779543773782e+01 0.000000000000e+00 
2.782770651389e+01 0.000000000000e+00 
2.794321980362e+01 0.000000000000e+00 
2.797539126201e+01 0.000000000000e+00 
2.800766003807e+01 0.000000000000e+00 
2.812137379268e+01 0.000000000000e+00 
2.815354525107e+01 0.000000000000e+00 
2.818581402713e+01 0.000000000000e+00 
2.829774624284e+01 0.000000000000e+00 
2.832991770123e+01 0.000000000000e+00 
2.836218647729e+01 0.000000000000e+00 
2.847235496865e+01 0.000000000000e+00 
2.850452642704e+01 0.000000000000e+00 
2.853679520310e+01 0.000000000000e+00 
2.864521760656e+01 0.000000000000e+00 
2.867738906495e+01 0.000000000000e+00 
2.870965784102e+01 0.000000000000e+00 
2.881635161852e+01 0.000000000000e+00 
2.884852307691e+01 0.000000000000e+00 
2.888079185298e+01 0.000000000000e+00 
2.898577429019e+01 0.000000000000e+00 
2.901794574858e+01 0.000000000000e+00 
2.905021452464e+01 0.000000000000e+00 
2.915350273452e+01 0.000000000000e+00 
2.918567419291e+01 0.000000000000e+00 
2.921794296897e+01 0.000000000000e+00 
2.931955389514e+01 0.000000000000e+00 
2.935172535353e+01 0.000000000000e+00 
2.938399412959e+01 0.000000000000e+00 
2.948394454456e+01 0.000000000000e+00 
2.951611600295e+01 0.000000000000e+00 
2.954838477902e+01 0.000000000000e+00 
2.964669128759e+01 0.000000000000e+00 
2.967886274598e+01 0.000000000000e+00 
2.971113152204e+01 0.000000000000e+00 
2.980781056202e+01 0.000000000000e+00 
2.983998202041e+01 0.000000000000e+00 
2.987225079647e+01 0.000000000000e+00 
2.996731864464e+01 0.000000000000e+00 
2.999949010302e+01 0.000000000000e+00 
3.003175887909e+01 0.000000000000e+00 
3.012523164653e+01 0.000000000000e+00 
3.015740310492e+01 0.000000000000e+00 
3.018967188098e+01 0.000000000000e+00 
3.028156551650e+01 0.000000000000e+00 
3.031373697489e+01 0.000000000000e+00 
3.034600575096e+01 0.000000000000e+00 
3.043633604941e+01 0.000000000000e+00 
3.046850750780e+01 0.000000000000e+00 
3.050077628387e+01 0.000000000000e+00 
3.058955887888e+01 0.000000000000e+00 
3.062173033727e+01 0.000000000000e+00 
3.065399911334e+01 0.000000000000e+00 
3.074124948053e+01 0.000000000000e+00 
3.077342093892e+01 0.000000000000e+00 
3.080568971498e+01 0.000000000000e+00 
3.089142317505e+01 0.000000000000e+00 
3.092359463344e+01 0.000000000000e+00 
3.095586340951e+01 0.000000000000e+00 
3.104009513137e+01 0.000000000000e+00 
3.107226658976e+01 0.000000000000e+00 
3.110453536582e+01 0.000000000000e+00 
3.118728036699e+01 0.000000000000e+00 
3.121945182538e+01 0.000000000000e+00 
3.125172060144e+01 0.000000000000e+00 
3.133299375111e+01 0.000000000000e+00 
3.136516520950e+01 0.000000000000e+00 
3.139743398556e+01 0.000000000000e+00 
3.147725000228e+01 0.000000000000e+00 
3.150942146067e+01 0.000000000000e+00 
3.154169023673e+01 0.000000000000e+00 
3.162006368889e+01 0.000000000000e+00 
3.165223514728e+01 0.000000000000e+00 
3.168450392335e+01 0.000000000000e+00 
3.176144923992e+01 0.000000000000e+00 
3.179362069831e+01 0.000000000000e+00 
3.182588947437e+01 0.000000000000e+00 
3.190142093727e+01 0.000000000000e+00 
3.193359239566e+01 0.000000000000e+00 
3.196586117172e+01 0.000000000000e+00 
3.203999291619e+01 0.000000000000e+00 
3.207216437457e+01 0.000000000000e+00 
3.210443315064e+01 0.000000000000e+00 
3.217717917592e+01 0.000000000000e+00 
3.220935063431e+01 0.000000000000e+00 
3.224161941037e+01 0.000000000000e+00 
3.231299357462e+01 0.000000000000e+00 
3.234516503301e+01 0.000000000000e+00 
3.237743380907e+01 0.000000000000e+00 
3.244744982700e+01 0.000000000000e+00 
3.247962128539e+01 0.000000000000e+00 
3.251189006145e+01 0.000000000000e+00 
3.258056151496e+01 0.000000000000e+00 
3.261273297335e+01 0.000000000000e+00 
3.264500174941e+01 0.000000000000e+00 
3.271234208762e+01 0.000000000000e+00 
3.274451354601e+01 0.000000000000e+00 
3.277678232207e+01 0.000000000000e+00 
3.284280485622e+01 0.000000000000e+00 
3.287497631461e+01 0.000000000000e+00 
3.290724509067e+01 0.000000000000e+00 
3.297196299682e+01 0.000000000000e+00 
3.300413445520e+01 0.000000000000e+00 
3.303640323127e+01 0.000000000000e+00 
3.309982955561e+01 0.000000000000e+00 
3.313200101399e+01 0.000000000000e+00 
3.316426979006e+01 0.000000000000e+00 
3.322641744887e+01 0.000000000000e+00 
3.325858890726e+01 0.000000000000e+00 
3.329085768332e+01 0.000000000000e+00 
3.335173946301e+01 0.000000000000e+00 
3.338391092140e+01 0.000000000000e+00 
3.341617969746e+01 0.000000000000e+00 
3.347580825710e+01 0.000000000000e+00 
3.350797971549e+01 0.000000000000e+00 
3.354024849155e+01 0.000000000000e+00 
3.359863636284e+01 0.000000000000e+00 
3.363080782123e+01 0.000000000000e+00 
3.366307659729e+01 0.000000000000e+00 
3.372023618710e+01 0.000000000000e+00 
3.375240764549e+01 0.000000000000e+00 
3.378467642156e+01 0.000000000000e+00 
3.384062001440e+01 0.000000000000e+00 
3.387279147279e+01 0.000000000000e+00 
3.390506024886e+01 0.000000000000e+00 
3.395980000413e+01 0.000000000000e+00 
3.399197146252e+01 0.000000000000e+00 
3.402424023859e+01 0.000000000000e+00 
3.407778819308e+01 0.000000000000e+00 
3.410995965147e+01 0.000000000000e+00 
3.414222842754e+01 0.000000000000e+00 
3.419459650045e+01 0.000000000000e+00 
3.422676795884e+01 0.000000000000e+00 
3.425903673490e+01 0.000000000000e+00 
3.431023672497e+01 0.000000000000e+00 
3.434240818336e+01 0.000000000000e+00 
3.437467695943e+01 0.000000000000e+00 
3.442472054740e+01 0.000000000000e+00 
3.445689200579e+01 0.000000000000e+00 
3.448916078185e+01 0.000000000000e+00 
3.453805953013e+01 0.000000000000e+00 
3.457023098852e+01 0.000000000000e+00 
3.460249976458e+01 0.000000000000e+00 
3.465026512228e+01 0.000000000000e+00 
3.468243658067e+01 0.000000000000e+00 
3.471470535674e+01 0.000000000000e+00 
3.476134865927e+01 0.000000000000e+00 
3.479352011765e+01 0.000000000000e+00 
3.482578889372e+01 0.000000000000e+00 
3.487132135991e+01 0.000000000000e+00 
3.490349281829e+01 0.000000000000e+00 
3.493576159436e+01 0.000000000000e+00 
3.498019433394e+01 0.000000000000e+00 
3.501236579233e+01 0.000000000000e+00 
3.504463456839e+01 0.000000000000e+00 
3.508797857898e+01 0.000000000000e+00 
3.512015003737e+01 0.000000000000e+00 
3.515241881344e+01 0.000000000000e+00 
3.519468498018e+01 0.000000000000e+00 
3.522685643857e+01 0.000000000000e+00 
3.525912521464e+01 0.000000000000e+00 
3.530032431765e+01 0.000000000000e+00 
3.533249577603e+01 0.000000000000e+00 
3.536476455210e+01 0.000000000000e+00 
3.540490726332e+01 0.000000000000e+00 
3.543707872171e+01 0.000000000000e+00 
3.546934749778e+01 0.000000000000e+00 
3.550844437798e+01 0.000000000000e+00 
3.554061583637e+01 0.000000000000e+00 
3.557288461243e+01 0.000000000000e+00 
3.561094612122e+01 0.000000000000e+00 
3.564311757961e+01 0.000000000000e+00 
3.567538635568e+01 0.000000000000e+00 
3.571242284826e+01 0.000000000000e+00 
3.574459430664e+01 0.000000000000e+00 
3.577686308271e+01 0.000000000000e+00 
3.581288480683e+01 0.000000000000e+00 
3.584505626522e+01 0.000000000000e+00 
3.587732504129e+01 0.000000000000e+00 
3.591234214717e+01 0.000000000000e+00 
3.594451360556e+01 0.000000000000e+00 
3.597678238163e+01 0.000000000000e+00 
3.601080491607e+01 0.000000000000e+00 
3.604297637446e+01 0.000000000000e+00 
3.607524515053e+01 0.000000000000e+00 
3.610828305642e+01 0.000000000000e+00 
3.614045451481e+01 0.000000000000e+00 
3.617272329087e+01 0.000000000000e+00 
3.620478641440e+01 0.000000000000e+00 
3.623695787279e+01 0.000000000000e+00 
3.626922664885e+01 0.000000000000e+00 
3.630032473888e+01 0.000000000000e+00 
3.633249619726e+01 0.000000000000e+00 
3.636476497333e+01 0.000000000000e+00 
3.639490768069e+01 0.000000000000e+00 
3.642707913908e+01 0.000000000000e+00 
3.645934791515e+01 0.000000000000e+00 
3.648854479205e+01 0.000000000000e+00 
3.652071625044e+01 0.000000000000e+00 
3.655298502651e+01 0.000000000000e+00 
3.658124553107e+01 0.000000000000e+00 
3.661341698946e+01 0.000000000000e+00 
3.664568576552e+01 0.000000000000e+00 
3.667301926365e+01 0.000000000000e+00 
3.670519072204e+01 0.000000000000e+00 
3.673745949810e+01 0.000000000000e+00 
3.676387526012e+01 0.000000000000e+00 
3.679604671851e+01 0.000000000000e+00 
3.682831549457e+01 0.000000000000e+00 
3.685382269716e+01 0.000000000000e+00 
3.688599415554e+01 0.000000000000e+00 
3.691826293161e+01 0.000000000000e+00 
3.694287065961e+01 0.000000000000e+00 
3.697504211800e+01 0.000000000000e+00 
3.700731089407e+01 0.000000000000e+00 
3.703102814238e+01 0.000000000000e+00 
3.706319960077e+01 0.000000000000e+00 
3.709546837683e+01 0.000000000000e+00 
3.711830404954e+01 0.000000000000e+00 
3.715047550793e+01 0.000000000000e+00 
3.718274428399e+01 0.000000000000e+00 
3.720470719621e+01 0.000000000000e+00 
3.723687865460e+01 0.000000000000e+00 
3.726914743066e+01 0.000000000000e+00 
3.729024631291e+01 0.000000000000e+00 
3.732241777130e+01 0.000000000000e+00 
3.735468654737e+01 0.000000000000e+00 
3.737493003944e+01 0.000000000000e+00 
3.740710149783e+01 0.000000000000e+00 
3.743937027390e+01 0.000000000000e+00 
3.745876692670e+01 0.000000000000e+00 
3.749093838509e+01 0.000000000000e+00 
3.752320716115e+01 0.000000000000e+00 
3.754176544363e+01 0.000000000000e+00 
3.757393690202e+01 0.000000000000e+00 
3.760620567808e+01 0.000000000000e+00 
3.762393397627e+01 0.000000000000e+00 
3.765610543466e+01 0.000000000000e+00 
3.768837421072e+01 0.000000000000e+00 
3.770528082420e+01 0.000000000000e+00 
3.773745228259e+01 0.000000000000e+00 
3.776972105866e+01 0.000000000000e+00 
3.778581420492e+01 0.000000000000e+00 
3.781798566331e+01 0.000000000000e+00 
3.785025443937e+01 0.000000000000e+00 
3.786554225277e+01 0.000000000000e+00 
3.789771371116e+01 0.000000000000e+00 
3.792998248722e+01 0.000000000000e+00 
3.794447301808e+01 0.000000000000e+00 
3.797664447646e+01 0.000000000000e+00 
3.800891325253e+01 0.000000000000e+00 
3.802261447399e+01 0.000000000000e+00 
3.805478593237e+01 0.000000000000e+00 
3.808705470844e+01 0.000000000000e+00 
3.809997451541e+01 0.000000000000e+00 
3.813214597379e+01 0.000000000000e+00 
3.816441474986e+01 0.000000000000e+00 
3.817656095799e+01 0.000000000000e+00 
3.820873241638e+01 0.000000000000e+00 
3.824100119245e+01 0.000000000000e+00 
3.825238153711e+01 0.000000000000e+00 
3.828455299550e+01 0.000000000000e+00 
3.831682177156e+01 0.000000000000e+00 
3.832744390943e+01 0.000000000000e+00 
3.835961536782e+01 0.000000000000e+00 
3.839188414388e+01 0.000000000000e+00 
3.840175565709e+01 0.000000000000e+00 
3.843392711548e+01 0.000000000000e+00 
3.846619589154e+01 0.000000000000e+00 
3.847532428920e+01 0.000000000000e+00 
3.850749574758e+01 0.000000000000e+00 
3.853976452365e+01 0.000000000000e+00 
 TITLE = "Profiles along polylines"
 VARIABLES = "DIST" "HEAD" 
 ZONE T="TIME=1.797693134862e+308"
3.475324289196e+00 3.435165564868e+01 
3.507495747585e+00 3.435011503025e+01 
3.539764523650e+00 3.434855548600e+01 
3.898157233462e+00 3.435151701408e+01 
3.930328691850e+00 3.434997627908e+01 
3.962597467915e+00 3.434841661791e+01 
4.316761850601e+00 3.435138127366e+01 
4.348933308990e+00 3.434984042324e+01 
4.381202085055e+00 3.434828064631e+01 
4.731180420471e+00 3.435124836918e+01 
4.763351878859e+00 3.434970740450e+01 
4.795620654924e+00 3.434814751297e+01 
5.141454804490e+00 3.435111824286e+01 
5.173626262879e+00 3.434957716507e+01 
5.205895038944e+00 3.434801716007e+01 
5.547626446143e+00 3.435099083797e+01 
5.579797904532e+00 3.434944964819e+01 
5.612066680597e+00 3.434788953086e+01 
5.949736371565e+00 3.435086609893e+01 
5.981907829954e+00 3.434932479828e+01 
6.014176606019e+00 3.434776456974e+01 
6.347825197814e+00 3.435074397132e+01 
6.379996656203e+00 3.434920256091e+01 
6.412265432267e+00 3.434764222228e+01 
6.741933135827e+00 3.435062440185e+01 
6.774104594216e+00 3.434908288277e+01 
6.806373370280e+00 3.434752243515e+01 
7.132099993308e+00 3.435050733831e+01 
7.164271451697e+00 3.434896571165e+01 
7.196540227762e+00 3.434740515612e+01 
7.518365180168e+00 3.435039272955e+01 
7.550536638557e+00 3.434885099639e+01 
7.582805414622e+00 3.434729033403e+01 
7.900767716460e+00 3.435028052545e+01 
7.932939174849e+00 3.434873868686e+01 
7.965207950914e+00 3.434717791875e+01 
8.279346227098e+00 3.435017067694e+01 
8.311517685487e+00 3.434862873396e+01 
8.343786461552e+00 3.434706786115e+01 
8.654138952443e+00 3.435006313588e+01 
8.686310410832e+00 3.434852108957e+01 
8.718579186897e+00 3.434696011311e+01 
9.025183750588e+00 3.434995785516e+01 
9.057355208977e+00 3.434841570654e+01 
9.089623985042e+00 3.434685462747e+01 
9.392518099960e+00 3.434985478859e+01 
9.424689558349e+00 3.434831253868e+01 
9.456958334414e+00 3.434675135802e+01 
9.756179106722e+00 3.434975389091e+01 
9.788350565111e+00 3.434821154073e+01 
9.820619341175e+00 3.434665025950e+01 
1.011620350190e+01 3.434965511778e+01 
1.014837496029e+01 3.434811266834e+01 
1.018064373635e+01 3.434655128754e+01 
1.047262765401e+01 3.434955842576e+01 
1.050479911240e+01 3.434801587805e+01 
1.053706788846e+01 3.434645439867e+01 
1.082548756587e+01 3.434946377228e+01 
1.085765902426e+01 3.434792112727e+01 
1.088992780032e+01 3.434635955031e+01 
1.117481887934e+01 3.434937111562e+01 
1.120699033773e+01 3.434782837430e+01 
1.123925911380e+01 3.434626670073e+01 
1.152065687983e+01 3.434928041493e+01 
1.155282833822e+01 3.434773757825e+01 
1.158509711429e+01 3.434617580903e+01 
1.186303649827e+01 3.434919163014e+01 
1.189520795666e+01 3.434764869906e+01 
1.192747673272e+01 3.434608683515e+01 
1.220199232071e+01 3.434910472203e+01 
1.223416377910e+01 3.434756169749e+01 
1.226643255517e+01 3.434599973985e+01 
1.253755858485e+01 3.434901965215e+01 
1.256973004323e+01 3.434747653509e+01 
1.260199881930e+01 3.434591448464e+01 
1.286976918695e+01 3.434893638284e+01 
1.290194064534e+01 3.434739317418e+01 
1.293420942141e+01 3.434583103185e+01 
1.319865768344e+01 3.434885487718e+01 
1.323082914182e+01 3.434731157783e+01 
1.326309791789e+01 3.434574934455e+01 
1.352425729509e+01 3.434877509901e+01 
1.355642875348e+01 3.434723170989e+01 
1.358869752954e+01 3.434566938656e+01 
1.384660091107e+01 3.434869701290e+01 
1.387877236946e+01 3.434715353490e+01 
1.391104114553e+01 3.434559112243e+01 
1.416572109042e+01 3.434862058413e+01 
1.419789254881e+01 3.434707701815e+01 
1.423016132488e+01 3.434551451741e+01 
1.448165006854e+01 3.434854577869e+01 
1.451382152693e+01 3.434700212559e+01 
1.454609030299e+01 3.434543953749e+01 
1.479441975589e+01 3.434847256325e+01 
1.482659121428e+01 3.434692882391e+01 
1.485885999034e+01 3.434536614931e+01 
1.510406174708e+01 3.434840090515e+01 
1.513623320547e+01 3.434685708044e+01 
1.516850198153e+01 3.434529432020e+01 
1.541060731930e+01 3.434833077239e+01 
1.544277877769e+01 3.434678686316e+01 
1.547504755375e+01 3.434522401815e+01 
1.571408743350e+01 3.434826213364e+01 
1.574625889189e+01 3.434671814074e+01 
1.577852766795e+01 3.434515521179e+01 
1.601453274586e+01 3.434819495818e+01 
1.604670420425e+01 3.434665088243e+01 
1.607897298032e+01 3.434508787040e+01 
1.631197360608e+01 3.434812921590e+01 
1.634414506447e+01 3.434658505815e+01 
1.637641384053e+01 3.434502196385e+01 
1.660644005826e+01 3.434806487734e+01 
1.663861151665e+01 3.434652063839e+01 
1.667088029271e+01 3.434495746266e+01 
1.689796184704e+01 3.434800191359e+01 
1.693013330543e+01 3.434645759426e+01 
1.696240208149e+01 3.434489433791e+01 
1.718656841830e+01 3.434794029636e+01 
1.721873987668e+01 3.434639589746e+01 
1.725100865275e+01 3.434483256129e+01 
1.747228892254e+01 3.434787999792e+01 
1.750446038093e+01 3.434633552023e+01 
1.753672915699e+01 3.434477210504e+01 
1.775515222077e+01 3.434782099108e+01 
1.778732367915e+01 3.434627643541e+01 
1.781959245522e+01 3.434471294199e+01 
1.803518688504e+01 3.434776324925e+01 
1.806735834343e+01 3.434621861636e+01 
1.809962711950e+01 3.434465504549e+01 
1.831242120168e+01 3.434770674632e+01 
1.834459266007e+01 3.434616203699e+01 
1.837686143613e+01 3.434459838946e+01 
1.858688317689e+01 3.434765145676e+01 
1.861905463528e+01 3.434610667175e+01 
1.865132341135e+01 3.434454294831e+01 
1.885860053462e+01 3.434759735552e+01 
1.889077199301e+01 3.434605249559e+01 
1.892304076908e+01 3.434448869701e+01 
1.912760071954e+01 3.434754441807e+01 
1.915977217793e+01 3.434599948398e+01 
1.919204095399e+01 3.434443561100e+01 
1.939391090257e+01 3.434749262039e+01 
1.942608236096e+01 3.434594761287e+01 
1.945835113702e+01 3.434438366624e+01 
1.965755798118e+01 3.434744193893e+01 
1.968972943957e+01 3.434589685872e+01 
1.972199821563e+01 3.434433283917e+01 
1.991856858743e+01 3.434739235062e+01 
1.995074004582e+01 3.434584719844e+01 
1.998300882188e+01 3.434428310671e+01 
2.017696908801e+01 3.434734383287e+01 
2.020914054640e+01 3.434579860944e+01 
2.024140932247e+01 3.434423444625e+01 
2.043278558445e+01 3.434729636353e+01 
2.046495704283e+01 3.434575106956e+01 
2.049722581890e+01 3.434418683562e+01 
2.068604391564e+01 3.434724992090e+01 
2.071821537403e+01 3.434570455711e+01 
2.075048415009e+01 3.434414025312e+01 
2.093676966323e+01 3.434720448374e+01 
2.096894112162e+01 3.434565905082e+01 
2.100120989768e+01 3.434409467749e+01 
2.118498815399e+01 3.434716003123e+01 
2.121715961238e+01 3.434561452986e+01 
2.124942838845e+01 3.434405008789e+01 
2.143072445983e+01 3.434711654296e+01 
2.146289591822e+01 3.434557097384e+01 
2.149516469428e+01 3.434400646391e+01 
2.167400340276e+01 3.434707399895e+01 
2.170617486115e+01 3.434552836275e+01 
2.173844363722e+01 3.434396378554e+01 
2.191484955737e+01 3.434703237962e+01 
2.194702101576e+01 3.434548667702e+01 
2.197928979183e+01 3.434392203319e+01 
2.215328725046e+01 3.434699166579e+01 
2.218545870885e+01 3.434544589744e+01 
2.221772748491e+01 3.434388118768e+01 
2.238934056607e+01 3.434695183867e+01 
2.242151202446e+01 3.434540600523e+01 
2.245378080052e+01 3.434384123019e+01 
2.262303334762e+01 3.434691287984e+01 
2.265520480600e+01 3.434536698197e+01 
2.268747358207e+01 3.434380214230e+01 
2.285438920019e+01 3.434687477127e+01 
2.288656065858e+01 3.434532880962e+01 
2.291882943464e+01 3.434376390596e+01 
2.308343149521e+01 3.434683749529e+01 
2.311560295360e+01 3.434529147049e+01 
2.314787172967e+01 3.434372650348e+01 
2.331018336737e+01 3.434680103459e+01 
2.334235482576e+01 3.434525494727e+01 
2.337462360182e+01 3.434368991755e+01 
2.353466772188e+01 3.434676537222e+01 
2.356683918027e+01 3.434521922299e+01 
2.359910795634e+01 3.434365413119e+01 
2.375690723388e+01 3.434673049154e+01 
2.378907869227e+01 3.434518428104e+01 
2.382134746833e+01 3.434361912778e+01 
2.397692435040e+01 3.434669637629e+01 
2.400909580879e+01 3.434515010513e+01 
2.404136458485e+01 3.434358489102e+01 
2.419474129491e+01 3.434666301053e+01 
2.422691275329e+01 3.434511667931e+01 
2.425918152936e+01 3.434355140497e+01 
2.441038006916e+01 3.434663037863e+01 
2.444255152754e+01 3.434508398796e+01 
2.447482030361e+01 3.434351865397e+01 
2.462386245501e+01 3.434659846530e+01 
2.465603391340e+01 3.434505201576e+01 
2.468830268946e+01 3.434348662273e+01 
2.483521001624e+01 3.434656725553e+01 
2.486738147463e+01 3.434502074771e+01 
2.489965025069e+01 3.434345529624e+01 
2.504444410284e+01 3.434653673464e+01 
2.507661556123e+01 3.434499016914e+01 
2.510888433729e+01 3.434342465980e+01 
2.525158585012e+01 3.434650688825e+01 
2.528375730851e+01 3.434496026563e+01 
2.531602608457e+01 3.434339469901e+01 
2.545665618036e+01 3.434647770226e+01 
2.548882763875e+01 3.434493102310e+01 
2.552109641481e+01 3.434336539976e+01 
2.565967580705e+01 3.434644916287e+01 
2.569184726544e+01 3.434490242773e+01 
2.572411604150e+01 3.434333674824e+01 
2.586066523644e+01 3.434642125654e+01 
2.589283669483e+01 3.434487446599e+01 
2.592510547089e+01 3.434330873092e+01 
2.605964477170e+01 3.434639397004e+01 
2.609181623009e+01 3.434484712462e+01 
2.612408500616e+01 3.434328133452e+01 
2.625663451174e+01 3.434636729038e+01 
2.628880597012e+01 3.434482039065e+01 
2.632107474619e+01 3.434325454607e+01 
2.645165435526e+01 3.434634120484e+01 
2.648382581365e+01 3.434479425134e+01 