 TITLE = "Profiles along polylines"
 VARIABLES = "DIST" "HEAD" 
 ZONE T="TIME=0.000000000000e+00"
6.199928206901e+01 0.000000000000e+00 
6.242211501328e+01 0.000000000000e+00 
6.284071963042e+01 0.000000000000e+00 
6.325513820029e+01 0.000000000000e+00 
6.366541258431e+01 0.000000000000e+00 
6.407158422597e+01 0.000000000000e+00 
6.447369415139e+01 0.000000000000e+00 
6.487178297764e+01 0.000000000000e+00 
6.526589091565e+01 0.000000000000e+00 
6.565605777314e+01 0.000000000000e+00 
6.604232296000e+01 0.000000000000e+00 
6.642472549629e+01 0.000000000000e+00 
6.680330400693e+01 0.000000000000e+00 
6.717809673228e+01 0.000000000000e+00 
6.754914153042e+01 0.000000000000e+00 
6.791647587980e+01 0.000000000000e+00 
6.828013688656e+01 0.000000000000e+00 
6.864016128174e+01 0.000000000000e+00 
6.899658543385e+01 0.000000000000e+00 
6.934944534571e+01 0.000000000000e+00 
6.969877665918e+01 0.000000000000e+00 
7.004461465967e+01 0.000000000000e+00 
7.038699427811e+01 0.000000000000e+00 
7.072595010056e+01 0.000000000000e+00 
7.106151636469e+01 0.000000000000e+00 
7.139372696680e+01 0.000000000000e+00 
7.172261546328e+01 0.000000000000e+00 
7.204821507494e+01 0.000000000000e+00 
7.237055869092e+01 0.000000000000e+00 
7.268967887027e+01 0.000000000000e+00 
7.300560784839e+01 0.000000000000e+00 
7.331837753574e+01 0.000000000000e+00 
7.362801952693e+01 0.000000000000e+00 
7.393456509915e+01 0.000000000000e+00 
7.423804521335e+01 0.000000000000e+00 
7.453849052572e+01 0.000000000000e+00 
7.483593138594e+01 0.000000000000e+00 
7.513039783812e+01 0.000000000000e+00 
7.542191962690e+01 0.000000000000e+00 
7.571052619816e+01 0.000000000000e+00 
7.599624670240e+01 0.000000000000e+00 
7.627911000063e+01 0.000000000000e+00 
7.655914466491e+01 0.000000000000e+00 
7.683637898154e+01 0.000000000000e+00 
7.711084095676e+01 0.000000000000e+00 
7.738255831449e+01 0.000000000000e+00 
7.765155849940e+01 0.000000000000e+00 
7.791786868244e+01 0.000000000000e+00 
7.818151576105e+01 0.000000000000e+00 
7.844252636730e+01 0.000000000000e+00 
7.870092686788e+01 0.000000000000e+00 
7.895674336432e+01 0.000000000000e+00 
7.921000169551e+01 0.000000000000e+00 
7.946072744310e+01 0.000000000000e+00 
7.970894593387e+01 0.000000000000e+00 
7.995468223970e+01 0.000000000000e+00 
8.019796118263e+01 0.000000000000e+00 
8.043880733724e+01 0.000000000000e+00 
8.067724503033e+01 0.000000000000e+00 
8.091329834594e+01 0.000000000000e+00 
8.114699112748e+01 0.000000000000e+00 
8.137834698005e+01 0.000000000000e+00 
8.160738927508e+01 0.000000000000e+00 
8.183414114723e+01 0.000000000000e+00 
8.205862550174e+01 0.000000000000e+00 
8.228086501374e+01 0.000000000000e+00 
8.250088213026e+01 0.000000000000e+00 
8.271869907477e+01 0.000000000000e+00 
8.293433784902e+01 0.000000000000e+00 
8.314782023487e+01 0.000000000000e+00 
8.335916779610e+01 0.000000000000e+00 
8.356840188270e+01 0.000000000000e+00 
8.377554362998e+01 0.000000000000e+00 
8.398061396021e+01 0.000000000000e+00 
8.418363358690e+01 0.000000000000e+00 
8.438462301629e+01 0.000000000000e+00 
8.458360255156e+01 0.000000000000e+00 
8.478059229159e+01 0.000000000000e+00 
8.497561213511e+01 0.000000000000e+00 
8.516868178209e+01 0.000000000000e+00 
8.535982073251e+01 0.000000000000e+00 
8.554904829269e+01 0.000000000000e+00 
8.573638357694e+01 0.000000000000e+00 
8.592184550854e+01 0.000000000000e+00 
8.610545282101e+01 0.000000000000e+00 
8.628722405928e+01 0.000000000000e+00 
8.646717758346e+01 0.000000000000e+00 
8.664533157252e+01 0.000000000000e+00 
8.682170402268e+01 0.000000000000e+00 
8.699631274849e+01 0.000000000000e+00 
8.716917538641e+01 0.000000000000e+00 
8.734030939837e+01 0.000000000000e+00 
8.750973207003e+01 0.000000000000e+00 
8.767746051436e+01 0.000000000000e+00 
8.784351167498e+01 0.000000000000e+00 
8.800790232440e+01 0.000000000000e+00 
8.817064906743e+01 0.000000000000e+00 
8.833176834186e+01 0.000000000000e+00 
8.849127642448e+01 0.000000000000e+00 
8.864918942637e+01 0.000000000000e+00 
8.880552329634e+01 0.000000000000e+00 
8.896029382925e+01 0.000000000000e+00 
8.911351665872e+01 0.000000000000e+00 
8.926520726037e+01 0.000000000000e+00 
8.941538095489e+01 0.000000000000e+00 
8.956405291121e+01 0.000000000000e+00 
8.971123814682e+01 0.000000000000e+00 
8.985695153094e+01 0.000000000000e+00 
9.000120778212e+01 0.000000000000e+00 
9.014402146873e+01 0.000000000000e+00 
9.028540701975e+01 0.000000000000e+00 
9.042537871710e+01 0.000000000000e+00 
9.056395069602e+01 0.000000000000e+00 
9.070113695575e+01 0.000000000000e+00 
9.083695135445e+01 0.000000000000e+00 
9.097140760683e+01 0.000000000000e+00 
9.110451929479e+01 0.000000000000e+00 
9.123629986745e+01 0.000000000000e+00 
9.136676263605e+01 0.000000000000e+00 
9.149592077665e+01 0.000000000000e+00 
9.162378733544e+01 0.000000000000e+00 
9.175037522870e+01 0.000000000000e+00 
9.187569724284e+01 0.000000000000e+00 
9.199976603693e+01 0.000000000000e+00 
9.212259414267e+01 0.000000000000e+00 
9.224419396693e+01 0.000000000000e+00 
9.236457779423e+01 0.000000000000e+00 
9.248375778396e+01 0.000000000000e+00 
9.260174597291e+01 0.000000000000e+00 
9.271855428027e+01 0.000000000000e+00 
9.283419450480e+01 0.000000000000e+00 
9.294867832722e+01 0.000000000000e+00 
9.306201730995e+01 0.000000000000e+00 
9.317422290211e+01 0.000000000000e+00 
9.328530643909e+01 0.000000000000e+00 
9.339527913973e+01 0.000000000000e+00 
9.350415211377e+01 0.000000000000e+00 
9.361193635881e+01 0.000000000000e+00 
9.371864276001e+01 0.000000000000e+00 
9.382428209747e+01 0.000000000000e+00 
9.392886504315e+01 0.000000000000e+00 
9.403240215780e+01 0.000000000000e+00 
9.413490390105e+01 0.000000000000e+00 
9.423638062808e+01 0.000000000000e+00 
9.433684258666e+01 0.000000000000e+00 
9.443629992700e+01 0.000000000000e+00 
9.453476269589e+01 0.000000000000e+00 
9.463224083624e+01 0.000000000000e+00 
9.472874419422e+01 0.000000000000e+00 
9.482428251870e+01 0.000000000000e+00 
9.491886546051e+01 0.000000000000e+00 
9.501250257187e+01 0.000000000000e+00 
9.510520331089e+01 0.000000000000e+00 
9.519697704347e+01 0.000000000000e+00 
9.528783303994e+01 0.000000000000e+00 
9.537778047698e+01 0.000000000000e+00 
9.546682843943e+01 0.000000000000e+00 
9.555498592220e+01 0.000000000000e+00 
9.564226182936e+01 0.000000000000e+00 
9.572866497603e+01 0.000000000000e+00 
9.581420409273e+01 0.000000000000e+00 
9.589888781926e+01 0.000000000000e+00 
9.598272470652e+01 0.000000000000e+00 
9.606572322345e+01 0.000000000000e+00 
9.614789175609e+01 0.000000000000e+00 
9.622923860402e+01 0.000000000000e+00 
9.630977198474e+01 0.000000000000e+00 
9.638950003259e+01 0.000000000000e+00 
9.646843079789e+01 0.000000000000e+00 
9.654657225380e+01 0.000000000000e+00 
9.662393229522e+01 0.000000000000e+00 
9.670051873781e+01 0.000000000000e+00 
9.677633931693e+01 0.000000000000e+00 
9.685140168925e+01 0.000000000000e+00 
9.692571343691e+01 0.000000000000e+00 
9.699928206901e+01 0.000000000000e+00 
 TITLE = "Profiles along polylines"
 VARIABLES = "DIST" "HEAD" 
 ZONE T="TIME=1.797693134862e+308"
6.199928206901e+01 3.171909670760e+01 
6.242211501328e+01 3.171809432369e+01 
6.284071963042e+01 3.171710714322e+01 
6.325513820029e+01 3.171613412301e+01 
6.366541258431e+01 3.171517466066e+01 
6.407158422597e+01 3.171422840852e+01 
6.447369415139e+01 3.171329515751e+01 
6.487178297764e+01 3.171237476620e+01 
6.526589091565e+01 3.171146711890e+01 
6.565605777314e+01 3.171057210204e+01 
6.604232296000e+01 3.170968959202e+01 
6.642472549629e+01 3.170881944993e+01 
6.680330400693e+01 3.170796152040e+01 
6.717809673228e+01 3.170711563264e+01 
6.754914153042e+01 3.170628160264e+01 
6.791647587980e+01 3.170545923577e+01 
6.828013688656e+01 3.170464832950e+01 
6.864016128174e+01 3.170384867588e+01 
6.899658543385e+01 3.170306006374e+01 
6.934944534571e+01 3.170228228066e+01 
6.969877665918e+01 3.170151511452e+01 
7.004461465967e+01 3.170075835480e+01 
7.038699427811e+01 3.170001179363e+01 
7.072595010056e+01 3.169927522653e+01 
7.106151636469e+01 3.169854845312e+01 
7.139372696680e+01 3.169783127744e+01 
7.172261546328e+01 3.169712350833e+01 
7.204821507494e+01 3.169642495961e+01 
7.237055869092e+01 3.169573545017e+01 
7.268967887027e+01 3.169505480402e+01 
7.300560784839e+01 3.169438285023e+01 
7.331837753574e+01 3.169371942295e+01 
7.362801952693e+01 3.169306436123e+01 
7.393456509915e+01 3.169241750896e+01 
7.423804521335e+01 3.169177871469e+01 
7.453849052572e+01 3.169114783152e+01 
7.483593138594e+01 3.169052471694e+01 
7.513039783812e+01 3.168990923264e+01 
7.542191962690e+01 3.168930124439e+01 
7.571052619816e+01 3.168870062189e+01 
7.599624670240e+01 3.168810723855e+01 
7.627911000063e+01 3.168752097141e+01 
7.655914466491e+01 3.168694170096e+01 
7.683637898154e+01 3.168636931097e+01 
7.711084095676e+01 3.168580368842e+01 
7.738255831449e+01 3.168524472329e+01 
7.765155849940e+01 3.168469230852e+01 
7.791786868244e+01 3.168414633980e+01 
7.818151576105e+01 3.168360671553e+01 
7.844252636730e+01 3.168307333665e+01 
7.870092686788e+01 3.168254610659e+01 
7.895674336432e+01 3.168202493113e+01 
7.921000169551e+01 3.168150971831e+01 
7.946072744310e+01 3.168100037838e+01 
7.970894593387e+01 3.168049682367e+01 
7.995468223970e+01 3.167999896854e+01 
8.019796118263e+01 3.167950672927e+01 
8.043880733724e+01 3.167902002403e+01 
8.067724503033e+01 3.167853877279e+01 
8.091329834594e+01 3.167806289724e+01 
8.114699112748e+01 3.167759232077e+01 
8.137834698005e+01 3.167712696837e+01 
8.160738927508e+01 3.167666676659e+01 
8.183414114723e+01 3.167621164350e+01 
8.205862550174e+01 3.167576152860e+01 
8.228086501374e+01 3.167531635284e+01 
8.250088213026e+01 3.167487604851e+01 
8.271869907477e+01 3.167444054923e+01 
8.293433784902e+01 3.167400978990e+01 
8.314782023487e+01 3.167358370667e+01 
8.335916779610e+01 3.167316223688e+01 
8.356840188270e+01 3.167274531905e+01 
8.377554362998e+01 3.167233289283e+01 
8.398061396021e+01 3.167192489898e+01 
8.418363358690e+01 3.167152127932e+01 
8.438462301629e+01 3.167112197674e+01 
8.458360255156e+01 3.167072693511e+01 
8.478059229159e+01 3.167033609932e+01 
8.497561213511e+01 3.166994941518e+01 
8.516868178209e+01 3.166956682949e+01 
8.535982073251e+01 3.166918828992e+01 
8.554904829269e+01 3.166881374505e+01 
8.573638357694e+01 3.166844314434e+01 
8.592184550854e+01 3.166807643807e+01 
8.610545282101e+01 3.166771357736e+01 
8.628722405928e+01 3.166735451414e+01 
8.646717758346e+01 3.166699920114e+01 
8.664533157252e+01 3.166664759184e+01 
8.682170402268e+01 3.166629964048e+01 
8.699631274849e+01 3.166595530204e+01 
8.716917538641e+01 3.166561453224e+01 
8.734030939837e+01 3.166527728746e+01 
8.750973207003e+01 3.166494352483e+01 
8.767746051436e+01 3.166461320210e+01 
8.784351167498e+01 3.166428627773e+01 
8.800790232440e+01 3.166396271079e+01 
8.817064906743e+01 3.166364246100e+01 
8.833176834186e+01 3.166332548873e+01 
8.849127642448e+01 3.166301175491e+01 
8.864918942637e+01 3.166270122111e+01 
8.880552329634e+01 3.166239384948e+01 
8.896029382925e+01 3.166208960272e+01 
8.911351665872e+01 3.166178844413e+01 
8.926520726037e+01 3.166149033754e+01 
8.941538095489e+01 3.166119524734e+01 
8.956405291121e+01 3.166090313844e+01 
8.971123814682e+01 3.166061397630e+01 
8.985695153094e+01 3.166032772687e+01 
9.000120778212e+01 3.166004435661e+01 
9.014402146873e+01 3.165976383248e+01 
9.028540701975e+01 3.165948612193e+01 
9.042537871710e+01 3.165921119288e+01 
9.056395069602e+01 3.165893901375e+01 
9.070113695575e+01 3.165866955339e+01 
9.083695135445e+01 3.165840278111e+01 
9.097140760683e+01 3.165813866668e+01 
9.110451929479e+01 3.165787718030e+01 
9.123629986745e+01 3.165761829260e+01 
9.136676263605e+01 3.165736197464e+01 
9.149592077665e+01 3.165710819788e+01 
9.162378733544e+01 3.165685693422e+01 
9.175037522870e+01 3.165660815593e+01 
9.187569724284e+01 3.165636183569e+01 
9.199976603693e+01 3.165611794657e+01 
9.212259414267e+01 3.165587646201e+01 
9.224419396693e+01 3.165563735583e+01 
9.236457779423e+01 3.165540060221e+01 
9.248375778396e+01 3.165516617571e+01 
9.260174597291e+01 3.165493405123e+01 
9.271855428027e+01 3.165470420402e+01 
9.283419450480e+01 3.165447660967e+01 
9.294867832722e+01 3.165425124410e+01 
9.306201730995e+01 3.165402808357e+01 
9.317422290211e+01 3.165380710465e+01 
9.328530643909e+01 3.165358828424e+01 
9.339527913973e+01 3.165337159954e+01 
9.350415211377e+01 3.165315702805e+01 
9.361193635881e+01 3.165294454757e+01 
9.371864276001e+01 3.165273413621e+01 
9.382428209747e+01 3.165252577233e+01 
9.392886504315e+01 3.165231943458e+01 
9.403240215780e+01 3.165211510192e+01 
9.413490390105e+01 3.165191275353e+01 
9.423638062808e+01 3.165171236887e+01 
9.433684258666e+01 3.165151392766e+01 
9.443629992700e+01 3.165131740986e+01 
9.453476269589e+01 3.165112279566e+01 
9.463224083624e+01 3.165093006553e+01 
9.472874419422e+01 3.165073920014e+01 
9.482428251870e+01 3.165055018038e+01 
9.491886546051e+01 3.165036298738e+01 
9.501250257187e+01 3.165017760248e+01 
9.510520331089e+01 3.164999400723e+01 
9.519697704347e+01 3.164981218335e+01 
9.528783303994e+01 3.164963211281e+01 
9.537778047698e+01 3.164945377773e+01 
9.546682843943e+01 3.164927716044e+01 
9.555498592220e+01 3.164910224344e+01 
9.564226182936e+01 3.164892900942e+01 
9.572866497603e+01 3.164875744121e+01 
9.581420409273e+01 3.164858752182e+01 
9.589888781926e+01 3.164841923443e+01 
9.598272470652e+01 3.164825256236e+01 
9.606572322345e+01 3.164808748908e+01 
9.614789175609e+01 3.164792399821e+01 
9.622923860402e+01 3.164776207349e+01 
9.630977198474e+01 3.164760169881e+01 
9.638950003259e+01 3.164744285818e+01 
9.646843079789e+01 3.164728553574e+01 
9.654657225380e+01 3.164712971575e+01 
9.662393229522e+01 3.164697538258e+01 
9.670051873781e+01 3.164682252069e+01 
9.677633931693e+01 3.164667111467e+01 
9.685140168925e+01 3.164652114921e+01 
9.692571343691e+01 3.164637260908e+01 
9.699928206901e+01 3.164622547915e+01 
