 TITLE = "Profiles along polylines"
 VARIABLES = "DIST" "HEAD" 
 ZONE T="TIME=0.000000000000e+00"
3.098290169938e+01 0.000000000000e+00 
3.140573464364e+01 0.000000000000e+00 
3.182433926078e+01 0.000000000000e+00 
3.223875783065e+01 0.000000000000e+00 
3.264903221467e+01 0.000000000000e+00 
3.305520385633e+01 0.000000000000e+00 
3.345731378175e+01 0.000000000000e+00 
3.385540260800e+01 0.000000000000e+00 
3.424951054602e+01 0.000000000000e+00 
3.463967740350e+01 0.000000000000e+00 
3.502594259036e+01 0.000000000000e+00 
3.540834512665e+01 0.000000000000e+00 
3.578692363729e+01 0.000000000000e+00 
3.616171636264e+01 0.000000000000e+00 
3.653276116078e+01 0.000000000000e+00 
3.690009551015e+01 0.000000000000e+00 
3.726375651692e+01 0.000000000000e+00 
3.762378091209e+01 0.000000000000e+00 
3.798020506421e+01 0.000000000000e+00 
3.833306497607e+01 0.000000000000e+00 
3.868239628954e+01 0.000000000000e+00 
3.902823429003e+01 0.000000000000e+00 
3.937061390847e+01 0.000000000000e+00 
3.970956973091e+01 0.000000000000e+00 
4.004513599505e+01 0.000000000000e+00 
4.037734659716e+01 0.000000000000e+00 
4.070623509364e+01 0.000000000000e+00 
4.103183470529e+01 0.000000000000e+00 
4.135417832128e+01 0.000000000000e+00 
4.167329850063e+01 0.000000000000e+00 
4.198922747875e+01 0.000000000000e+00 
4.230199716610e+01 0.000000000000e+00 
4.261163915729e+01 0.000000000000e+00 
4.291818472951e+01 0.000000000000e+00 
4.322166484371e+01 0.000000000000e+00 
4.352211015608e+01 0.000000000000e+00 
4.381955101629e+01 0.000000000000e+00 
4.411401746847e+01 0.000000000000e+00 
4.440553925725e+01 0.000000000000e+00 
4.469414582851e+01 0.000000000000e+00 
4.497986633275e+01 0.000000000000e+00 
4.526272963098e+01 0.000000000000e+00 
4.554276429526e+01 0.000000000000e+00 
4.581999861189e+01 0.000000000000e+00 
4.609446058711e+01 0.000000000000e+00 
4.636617794484e+01 0.000000000000e+00 
4.663517812976e+01 0.000000000000e+00 
4.690148831279e+01 0.000000000000e+00 
4.716513539140e+01 0.000000000000e+00 
4.742614599765e+01 0.000000000000e+00 
4.768454649824e+01 0.000000000000e+00 
4.794036299467e+01 0.000000000000e+00 
4.819362132586e+01 0.000000000000e+00 
4.844434707345e+01 0.000000000000e+00 
4.869256556422e+01 0.000000000000e+00 
4.893830187005e+01 0.000000000000e+00 
4.918158081299e+01 0.000000000000e+00 
4.942242696759e+01 0.000000000000e+00 
4.966086466068e+01 0.000000000000e+00 
4.989691797629e+01 0.000000000000e+00 
5.013061075783e+01 0.000000000000e+00 
5.036196661041e+01 0.000000000000e+00 
5.059100890543e+01 0.000000000000e+00 
5.081776077758e+01 0.000000000000e+00 
5.104224513210e+01 0.000000000000e+00 
5.126448464409e+01 0.000000000000e+00 
5.148450176062e+01 0.000000000000e+00 
5.170231870512e+01 0.000000000000e+00 
5.191795747937e+01 0.000000000000e+00 
5.213143986522e+01 0.000000000000e+00 
5.234278742645e+01 0.000000000000e+00 
5.255202151305e+01 0.000000000000e+00 
5.275916326033e+01 0.000000000000e+00 
5.296423359057e+01 0.000000000000e+00 
5.316725321726e+01 0.000000000000e+00 
5.336824264665e+01 0.000000000000e+00 
5.356722218191e+01 0.000000000000e+00 
5.376421192194e+01 0.000000000000e+00 
5.395923176547e+01 0.000000000000e+00 
5.415230141245e+01 0.000000000000e+00 
5.434344036287e+01 0.000000000000e+00 
5.453266792305e+01 0.000000000000e+00 
5.472000320730e+01 0.000000000000e+00 
5.490546513890e+01 0.000000000000e+00 
5.508907245136e+01 0.000000000000e+00 
5.527084368964e+01 0.000000000000e+00 
5.545079721382e+01 0.000000000000e+00 
5.562895120288e+01 0.000000000000e+00 
5.580532365304e+01 0.000000000000e+00 
5.597993237885e+01 0.000000000000e+00 
5.615279501676e+01 0.000000000000e+00 
5.632392902872e+01 0.000000000000e+00 
5.649335170039e+01 0.000000000000e+00 
5.666108014472e+01 0.000000000000e+00 
5.682713130534e+01 0.000000000000e+00 
5.699152195476e+01 0.000000000000e+00 
5.715426869779e+01 0.000000000000e+00 
5.731538797222e+01 0.000000000000e+00 
5.747489605483e+01 0.000000000000e+00 
5.763280905673e+01 0.000000000000e+00 
5.778914292670e+01 0.000000000000e+00 
5.794391345961e+01 0.000000000000e+00 
5.809713628908e+01 0.000000000000e+00 
5.824882689073e+01 0.000000000000e+00 
5.839900058525e+01 0.000000000000e+00 
5.854767254156e+01 0.000000000000e+00 
5.869485777718e+01 0.000000000000e+00 
5.884057116130e+01 0.000000000000e+00 
5.898482741247e+01 0.000000000000e+00 
5.912764109909e+01 0.000000000000e+00 
5.926902665011e+01 0.000000000000e+00 
5.940899834746e+01 0.000000000000e+00 
5.954757032638e+01 0.000000000000e+00 
5.968475658611e+01 0.000000000000e+00 
5.982057098481e+01 0.000000000000e+00 
5.995502723719e+01 0.000000000000e+00 
6.008813892515e+01 0.000000000000e+00 
6.021991949781e+01 0.000000000000e+00 
6.035038226641e+01 0.000000000000e+00 
6.047954040701e+01 0.000000000000e+00 
6.060740696580e+01 0.000000000000e+00 
6.073399485906e+01 0.000000000000e+00 
6.085931687320e+01 0.000000000000e+00 
6.098338566729e+01 0.000000000000e+00 
6.110621377303e+01 0.000000000000e+00 
6.122781359729e+01 0.000000000000e+00 
6.134819742459e+01 0.000000000000e+00 
6.146737741432e+01 0.000000000000e+00 
6.158536560327e+01 0.000000000000e+00 
6.170217391063e+01 0.000000000000e+00 
6.181781413516e+01 0.000000000000e+00 
6.193229795758e+01 0.000000000000e+00 
6.204563694031e+01 0.000000000000e+00 
6.215784253247e+01 0.000000000000e+00 
6.226892606945e+01 0.000000000000e+00 
6.237889877009e+01 0.000000000000e+00 
6.248777174413e+01 0.000000000000e+00 
6.259555598917e+01 0.000000000000e+00 
6.270226239037e+01 0.000000000000e+00 
6.280790172783e+01 0.000000000000e+00 
6.291248467351e+01 0.000000000000e+00 
6.301602178817e+01 0.000000000000e+00 
6.311852353141e+01 0.000000000000e+00 
6.322000025844e+01 0.000000000000e+00 
6.332046221702e+01 0.000000000000e+00 
6.341991955736e+01 0.000000000000e+00 
6.351838232626e+01 0.000000000000e+00 
6.361586046660e+01 0.000000000000e+00 
6.371236382458e+01 0.000000000000e+00 
6.380790214906e+01 0.000000000000e+00 
6.390248509088e+01 0.000000000000e+00 
6.399612220224e+01 0.000000000000e+00 
6.408882294125e+01 0.000000000000e+00 
6.418059667383e+01 0.000000000000e+00 
6.427145267030e+01 0.000000000000e+00 
6.436140010734e+01 0.000000000000e+00 
6.445044806980e+01 0.000000000000e+00 
6.453860555256e+01 0.000000000000e+00 
6.462588145972e+01 0.000000000000e+00 
6.471228460639e+01 0.000000000000e+00 
6.479782372309e+01 0.000000000000e+00 
6.488250744962e+01 0.000000000000e+00 
6.496634433688e+01 0.000000000000e+00 
6.504934285381e+01 0.000000000000e+00 
6.513151138645e+01 0.000000000000e+00 
6.521285823439e+01 0.000000000000e+00 
6.529339161510e+01 0.000000000000e+00 
6.537311966295e+01 0.000000000000e+00 
6.545205042826e+01 0.000000000000e+00 
6.553019188417e+01 0.000000000000e+00 
6.560755192559e+01 0.000000000000e+00 
6.568413836817e+01 0.000000000000e+00 
6.575995894729e+01 0.000000000000e+00 
6.583502131961e+01 0.000000000000e+00 
6.590933306727e+01 0.000000000000e+00 
6.598290169938e+01 0.000000000000e+00 
 TITLE = "Profiles along polylines"
 VARIABLES = "DIST" "HEAD" 
 ZONE T="TIME=1.797693134862e+308"
3.098290169938e+01 3.256426168380e+01 
3.140573464364e+01 3.256389735963e+01 
3.182433926078e+01 3.256353788883e+01 
3.223875783065e+01 3.256318319630e+01 
3.264903221467e+01 3.256283320861e+01 
3.305520385633e+01 3.256248785404e+01 
3.345731378175e+01 3.256214706243e+01 
3.385540260800e+01 3.256181076520e+01 
3.424951054602e+01 3.256147889527e+01 
3.463967740350e+01 3.256115138699e+01 
3.502594259036e+01 3.256082817613e+01 
3.540834512665e+01 3.256050919977e+01 
3.578692363729e+01 3.256019439632e+01 
3.616171636264e+01 3.255988370545e+01 
3.653276116078e+01 3.255957706802e+01 
3.690009551015e+01 3.255927442608e+01 
3.726375651692e+01 3.255897572280e+01 
3.762378091209e+01 3.255868090245e+01 
3.798020506421e+01 3.255838991035e+01 
3.833306497607e+01 3.255810269284e+01 
3.868239628954e+01 3.255781919727e+01 
3.902823429003e+01 3.255753937190e+01 
3.937061390847e+01 3.255726316595e+01 
3.970956973091e+01 3.255699052951e+01 
4.004513599505e+01 3.255672141356e+01 
4.037734659716e+01 3.255645576990e+01 
4.070623509364e+01 3.255619355113e+01 
4.103183470529e+01 3.255593471067e+01 
4.135417832128e+01 3.255567920267e+01 
4.167329850063e+01 3.255542698205e+01 
4.198922747875e+01 3.255517800443e+01 
4.230199716610e+01 3.255493222613e+01 
4.261163915729e+01 3.255468960417e+01 
4.291818472951e+01 3.255445009621e+01 
4.322166484371e+01 3.255421366056e+01 
4.352211015608e+01 3.255398025615e+01 
4.381955101629e+01 3.255374984254e+01 
4.411401746847e+01 3.255352237986e+01 
4.440553925725e+01 3.255329782884e+01 
4.469414582851e+01 3.255307615078e+01 
4.497986633275e+01 3.255285730752e+01 
4.526272963098e+01 3.255264126144e+01 
4.554276429526e+01 3.255242797547e+01 
4.581999861189e+01 3.255221741303e+01 
4.609446058711e+01 3.255200953807e+01 
4.636617794484e+01 3.255180431502e+01 
4.663517812976e+01 3.255160170881e+01 
4.690148831279e+01 3.255140168485e+01 
4.716513539140e+01 3.255120420901e+01 
4.742614599765e+01 3.255100924761e+01 
4.768454649824e+01 3.255081676743e+01 
4.794036299467e+01 3.255062673571e+01 
4.819362132586e+01 3.255043912011e+01 
4.844434707345e+01 3.255025388870e+01 
4.869256556422e+01 3.255007101001e+01 
4.893830187005e+01 3.254989045297e+01 
4.918158081299e+01 3.254971218689e+01 
4.942242696759e+01 3.254953618153e+01 
4.966086466068e+01 3.254936240701e+01 
4.989691797629e+01 3.254919083386e+01 
5.013061075783e+01 3.254902143298e+01 
5.036196661041e+01 3.254885417567e+01 
5.059100890543e+01 3.254868903357e+01 
5.081776077758e+01 3.254852597872e+01 
5.104224513210e+01 3.254836498351e+01 
5.126448464409e+01 3.254820602069e+01 
5.148450176062e+01 3.254804906338e+01 
5.170231870512e+01 3.254789408502e+01 
5.191795747937e+01 3.254774105941e+01 
5.213143986522e+01 3.254758996070e+01 
5.234278742645e+01 3.254744076337e+01 
5.255202151305e+01 3.254729344223e+01 
5.275916326033e+01 3.254714797241e+01 
5.296423359057e+01 3.254700432938e+01 
5.316725321726e+01 3.254686248893e+01 
5.336824264665e+01 3.254672242715e+01 
5.356722218191e+01 3.254658412046e+01 
5.376421192194e+01 3.254644754559e+01 
5.395923176547e+01 3.254631267956e+01 
5.415230141245e+01 3.254617949970e+01 
5.434344036287e+01 3.254604798365e+01 
5.453266792305e+01 3.254591810932e+01 
5.472000320730e+01 3.254578985493e+01 
5.490546513890e+01 3.254566319900e+01 
5.508907245136e+01 3.254553812029e+01 
5.527084368964e+01 3.254541459789e+01 
5.545079721382e+01 3.254529261114e+01 
5.562895120288e+01 3.254517213967e+01 
5.580532365304e+01 3.254505316336e+01 
5.597993237885e+01 3.254493566238e+01 
5.615279501676e+01 3.254481961716e+01 
5.632392902872e+01 3.254470500838e+01 
5.649335170039e+01 3.254459181700e+01 
5.666108014472e+01 3.254448002422e+01 
5.682713130534e+01 3.254436961149e+01 
5.699152195476e+01 3.254426056053e+01 
5.715426869779e+01 3.254415285328e+01 
5.731538797222e+01 3.254404647194e+01 
5.747489605483e+01 3.254394139896e+01 
5.763280905673e+01 3.254383761700e+01 
5.778914292670e+01 3.254373510898e+01 
5.794391345961e+01 3.254363385804e+01 
5.809713628908e+01 3.254353384755e+01 
5.824882689073e+01 3.254343506112e+01 
5.839900058525e+01 3.254333748256e+01 
5.854767254156e+01 3.254324109592e+01 
5.869485777718e+01 3.254314588547e+01 
5.884057116130e+01 3.254305183567e+01 
5.898482741247e+01 3.254295893121e+01 
5.912764109909e+01 3.254286715701e+01 
5.926902665011e+01 3.254277649815e+01 
5.940899834746e+01 3.254268693996e+01 
5.954757032638e+01 3.254259846796e+01 
5.968475658611e+01 3.254251106784e+01 
5.982057098481e+01 3.254242472552e+01 
5.995502723719e+01 3.254233942712e+01 
6.008813892515e+01 3.254225515891e+01 
6.021991949781e+01 3.254217190740e+01 
6.035038226641e+01 3.254208965924e+01 
6.047954040701e+01 3.254200840130e+01 
6.060740696580e+01 3.254192812061e+01 
6.073399485906e+01 3.254184880440e+01 
6.085931687320e+01 3.254177044005e+01 
6.098338566729e+01 3.254169301514e+01 
6.110621377303e+01 3.254161651741e+01 
6.122781359729e+01 3.254154093478e+01 
6.134819742459e+01 3.254146625531e+01 
6.146737741432e+01 3.254139246726e+01 
6.158536560327e+01 3.254131955904e+01 
6.170217391063e+01 3.254124751921e+01 
6.181781413516e+01 3.254117633650e+01 
6.193229795758e+01 3.254110599980e+01 
6.204563694031e+01 3.254103649815e+01 
6.215784253247e+01 3.254096782074e+01 
6.226892606945e+01 3.254089995692e+01 
6.237889877009e+01 3.254083289616e+01 
6.248777174413e+01 3.254076662811e+01 
6.259555598917e+01 3.254070114256e+01 
6.270226239037e+01 3.254063642941e+01 
6.280790172783e+01 3.254057247874e+01 
6.291248467351e+01 3.254050928074e+01 
6.301602178817e+01 3.254044682575e+01 
6.311852353141e+01 3.254038510424e+01 
6.322000025844e+01 3.254032410682e+01 
6.332046221702e+01 3.254026382422e+01 
6.341991955736e+01 3.254020424730e+01 
6.351838232626e+01 3.254014536705e+01 
6.361586046660e+01 3.254008717458e+01 
6.371236382458e+01 3.254002966114e+01 
6.380790214906e+01 3.253997281808e+01 
6.390248509088e+01 3.253991663687e+01 
6.399612220224e+01 3.253986110912e+01 
6.408882294125e+01 3.253980622654e+01 
6.418059667383e+01 3.253975198096e+01 
6.427145267030e+01 3.253969836431e+01 
6.436140010734e+01 3.253964536864e+01 
6.445044806980e+01 3.253959298613e+01 
6.453860555256e+01 3.253954120903e+01 
6.462588145972e+01 3.253949002973e+01 
6.471228460639e+01 3.253943944070e+01 
6.479782372309e+01 3.253938943453e+01 
6.488250744962e+01 3.253934000390e+01 
6.496634433688e+01 3.253929114161e+01 
6.504934285381e+01 3.253924284054e+01 
6.513151138645e+01 3.253919509367e+01 
6.521285823439e+01 3.253914789408e+01 
6.529339161510e+01 3.253910123495e+01 
6.537311966295e+01 3.253905510954e+01 
6.545205042826e+01 3.253900951122e+01 
6.553019188417e+01 3.253896443344e+01 
6.560755192559e+01 3.253891986974e+01 
6.568413836817e+01 3.253887581374e+01 
6.575995894729e+01 3.253883225916e+01 
6.583502131961e+01 3.253878919981e+01 
6.590933306727e+01 3.253874662956e+01 
6.598290169938e+01 3.253870454239e+01 
