 TITLE = "Profiles along polylines"
 VARIABLES = "DIST" "HEAD" 
 ZONE T="TIME=0.000000000000e+00"
1.400908297708e+01 0.000000000000e+00 
1.443191592135e+01 0.000000000000e+00 
1.485052053849e+01 0.000000000000e+00 
1.526493910836e+01 0.000000000000e+00 
1.567521349238e+01 0.000000000000e+00 
1.608138513403e+01 0.000000000000e+00 
1.648349505946e+01 0.000000000000e+00 
1.688158388571e+01 0.000000000000e+00 
1.727569182372e+01 0.000000000000e+00 
1.766585868120e+01 0.000000000000e+00 
1.805212386806e+01 0.000000000000e+00 
1.843452640435e+01 0.000000000000e+00 
1.881310491499e+01 0.000000000000e+00 
1.918789764034e+01 0.000000000000e+00 
1.955894243848e+01 0.000000000000e+00 
1.992627678786e+01 0.000000000000e+00 
2.028993779462e+01 0.000000000000e+00 
2.064996218979e+01 0.000000000000e+00 
2.100638634191e+01 0.000000000000e+00 
2.135924625377e+01 0.000000000000e+00 
2.170857756724e+01 0.000000000000e+00 
2.205441556773e+01 0.000000000000e+00 
2.239679518617e+01 0.000000000000e+00 
2.273575100861e+01 0.000000000000e+00 
2.307131727275e+01 0.000000000000e+00 
2.340352787485e+01 0.000000000000e+00 
2.373241637134e+01 0.000000000000e+00 
2.405801598299e+01 0.000000000000e+00 
2.438035959898e+01 0.000000000000e+00 
2.469947977833e+01 0.000000000000e+00 
2.501540875644e+01 0.000000000000e+00 
2.532817844380e+01 0.000000000000e+00 
2.563782043498e+01 0.000000000000e+00 
2.594436600720e+01 0.000000000000e+00 
2.624784612140e+01 0.000000000000e+00 
2.654829143377e+01 0.000000000000e+00 
2.684573229398e+01 0.000000000000e+00 
2.714019874617e+01 0.000000000000e+00 
2.743172053495e+01 0.000000000000e+00 
2.772032710621e+01 0.000000000000e+00 
2.800604761045e+01 0.000000000000e+00 
2.828891090868e+01 0.000000000000e+00 
2.856894557295e+01 0.000000000000e+00 
2.884617988959e+01 0.000000000000e+00 
2.912064186481e+01 0.000000000000e+00 
2.939235922254e+01 0.000000000000e+00 
2.966135940745e+01 0.000000000000e+00 
2.992766959048e+01 0.000000000000e+00 
3.019131666909e+01 0.000000000000e+00 
3.045232727534e+01 0.000000000000e+00 
3.071072777593e+01 0.000000000000e+00 
3.096654427236e+01 0.000000000000e+00 
3.121980260356e+01 0.000000000000e+00 
3.147052835114e+01 0.000000000000e+00 
3.171874684191e+01 0.000000000000e+00 
3.196448314775e+01 0.000000000000e+00 
3.220776209068e+01 0.000000000000e+00 
3.244860824528e+01 0.000000000000e+00 
3.268704593837e+01 0.000000000000e+00 
3.292309925398e+01 0.000000000000e+00 
3.315679203553e+01 0.000000000000e+00 
3.338814788810e+01 0.000000000000e+00 
3.361719018312e+01 0.000000000000e+00 
3.384394205528e+01 0.000000000000e+00 
3.406842640979e+01 0.000000000000e+00 
3.429066592179e+01 0.000000000000e+00 
3.451068303831e+01 0.000000000000e+00 
3.472849998281e+01 0.000000000000e+00 
3.494413875706e+01 0.000000000000e+00 
3.515762114292e+01 0.000000000000e+00 
3.536896870415e+01 0.000000000000e+00 
3.557820279075e+01 0.000000000000e+00 
3.578534453803e+01 0.000000000000e+00 
3.599041486827e+01 0.000000000000e+00 
3.619343449495e+01 0.000000000000e+00 
3.639442392435e+01 0.000000000000e+00 
3.659340345961e+01 0.000000000000e+00 
3.679039319964e+01 0.000000000000e+00 
3.698541304317e+01 0.000000000000e+00 
3.717848269014e+01 0.000000000000e+00 
3.736962164057e+01 0.000000000000e+00 
3.755884920075e+01 0.000000000000e+00 
3.774618448500e+01 0.000000000000e+00 
3.793164641659e+01 0.000000000000e+00 
3.811525372906e+01 0.000000000000e+00 
3.829702496733e+01 0.000000000000e+00 
3.847697849152e+01 0.000000000000e+00 
3.865513248058e+01 0.000000000000e+00 
3.883150493074e+01 0.000000000000e+00 
3.900611365655e+01 0.000000000000e+00 
3.917897629446e+01 0.000000000000e+00 
3.935011030642e+01 0.000000000000e+00 
3.951953297809e+01 0.000000000000e+00 
3.968726142242e+01 0.000000000000e+00 
3.985331258304e+01 0.000000000000e+00 
4.001770323246e+01 0.000000000000e+00 
4.018044997549e+01 0.000000000000e+00 
4.034156924992e+01 0.000000000000e+00 
4.050107733253e+01 0.000000000000e+00 
4.065899033443e+01 0.000000000000e+00 
4.081532420440e+01 0.000000000000e+00 
4.097009473731e+01 0.000000000000e+00 
4.112331756678e+01 0.000000000000e+00 
4.127500816843e+01 0.000000000000e+00 
4.142518186295e+01 0.000000000000e+00 
4.157385381927e+01 0.000000000000e+00 
4.172103905489e+01 0.000000000000e+00 
4.186675243900e+01 0.000000000000e+00 
4.201100869018e+01 0.000000000000e+00 
4.215382237679e+01 0.000000000000e+00 
4.229520792782e+01 0.000000000000e+00 
4.243517962516e+01 0.000000000000e+00 
4.257375160408e+01 0.000000000000e+00 
4.271093786381e+01 0.000000000000e+00 
4.284675226251e+01 0.000000000000e+00 
4.298120851489e+01 0.000000000000e+00 
4.311432020285e+01 0.000000000000e+00 
4.324610077551e+01 0.000000000000e+00 
4.337656354411e+01 0.000000000000e+00 
4.350572168471e+01 0.000000000000e+00 
4.363358824350e+01 0.000000000000e+00 
4.376017613676e+01 0.000000000000e+00 
4.388549815090e+01 0.000000000000e+00 
4.400956694499e+01 0.000000000000e+00 
4.413239505073e+01 0.000000000000e+00 
4.425399487499e+01 0.000000000000e+00 
4.437437870229e+01 0.000000000000e+00 
4.449355869202e+01 0.000000000000e+00 
4.461154688098e+01 0.000000000000e+00 
4.472835518834e+01 0.000000000000e+00 
4.484399541287e+01 0.000000000000e+00 
4.495847923529e+01 0.000000000000e+00 
4.507181821802e+01 0.000000000000e+00 
4.518402381017e+01 0.000000000000e+00 
4.529510734716e+01 0.000000000000e+00 
4.540508004780e+01 0.000000000000e+00 
4.551395302183e+01 0.000000000000e+00 
4.562173726687e+01 0.000000000000e+00 
4.572844366807e+01 0.000000000000e+00 
4.583408300554e+01 0.000000000000e+00 
4.593866595121e+01 0.000000000000e+00 
4.604220306587e+01 0.000000000000e+00 
4.614470480911e+01 0.000000000000e+00 
4.624618153614e+01 0.000000000000e+00 
4.634664349472e+01 0.000000000000e+00 
4.644610083506e+01 0.000000000000e+00 
4.654456360396e+01 0.000000000000e+00 
4.664204174431e+01 0.000000000000e+00 
4.673854510229e+01 0.000000000000e+00 
4.683408342676e+01 0.000000000000e+00 
4.692866636858e+01 0.000000000000e+00 
4.702230347994e+01 0.000000000000e+00 
4.711500421896e+01 0.000000000000e+00 
4.720677795154e+01 0.000000000000e+00 
4.729763394801e+01 0.000000000000e+00 
4.738758138504e+01 0.000000000000e+00 
4.747662934750e+01 0.000000000000e+00 
4.756478683027e+01 0.000000000000e+00 
4.765206273743e+01 0.000000000000e+00 
4.773846588410e+01 0.000000000000e+00 
4.782400500080e+01 0.000000000000e+00 
4.790868872733e+01 0.000000000000e+00 
4.799252561459e+01 0.000000000000e+00 
4.807552413152e+01 0.000000000000e+00 
4.815769266416e+01 0.000000000000e+00 
4.823903951209e+01 0.000000000000e+00 
4.831957289281e+01 0.000000000000e+00 
4.839930094066e+01 0.000000000000e+00 
4.847823170596e+01 0.000000000000e+00 
4.855637316187e+01 0.000000000000e+00 
4.863373320329e+01 0.000000000000e+00 
4.871031964588e+01 0.000000000000e+00 
4.878614022500e+01 0.000000000000e+00 
4.886120259732e+01 0.000000000000e+00 
4.893551434498e+01 0.000000000000e+00 
4.900908297708e+01 0.000000000000e+00 
 TITLE = "Profiles along polylines"
 VARIABLES = "DIST" "HEAD" 
 ZONE T="TIME=1.797693134862e+308"
1.400908297708e+01 3.344706216822e+01 
1.443191592135e+01 3.344684950757e+01 
1.485052053849e+01 3.344664011046e+01 
1.526493910836e+01 3.344643392020e+01 
1.567521349238e+01 3.344623088200e+01 
1.608138513403e+01 3.344603094272e+01 
1.648349505946e+01 3.344583405072e+01 
1.688158388571e+01 3.344564015584e+01 
1.727569182372e+01 3.344544920926e+01 
1.766585868120e+01 3.344526116351e+01 
1.805212386806e+01 3.344507597231e+01 
1.843452640435e+01 3.344489359061e+01 
1.881310491499e+01 3.344471397444e+01 
1.918789764034e+01 3.344453708088e+01 
1.955894243848e+01 3.344436286802e+01 
1.992627678786e+01 3.344419129488e+01 
2.028993779462e+01 3.344402232138e+01 
2.064996218979e+01 3.344385590828e+01 
2.100638634191e+01 3.344369201712e+01 
2.135924625377e+01 3.344353061023e+01 
2.170857756724e+01 3.344337165064e+01 
2.205441556773e+01 3.344321510207e+01 
2.239679518617e+01 3.344306092888e+01 
2.273575100861e+01 3.344290909607e+01 
2.307131727275e+01 3.344275956921e+01 
2.340352787485e+01 3.344261231445e+01 
2.373241637134e+01 3.344246729849e+01 
2.405801598299e+01 3.344232448854e+01 
2.438035959898e+01 3.344218385232e+01 
2.469947977833e+01 3.344204535802e+01 
2.501540875644e+01 3.344190897431e+01 
2.532817844380e+01 3.344177467032e+01 
2.563782043498e+01 3.344164241561e+01 
2.594436600720e+01 3.344151218016e+01 
2.624784612140e+01 3.344138393438e+01 
2.654829143377e+01 3.344125764907e+01 
2.684573229398e+01 3.344113329545e+01 
2.714019874617e+01 3.344101084509e+01 
2.743172053495e+01 3.344089026998e+01 
2.772032710621e+01 3.344077154246e+01 
2.800604761045e+01 3.344065463523e+01 
2.828891090868e+01 3.344053952137e+01 
2.856894557295e+01 3.344042617430e+01 
2.884617988959e+01 3.344031456779e+01 
2.912064186481e+01 3.344020467595e+01 
2.939235922254e+01 3.344009647324e+01 
2.966135940745e+01 3.343998993445e+01 
2.992766959048e+01 3.343988503469e+01 
3.019131666909e+01 3.343978174942e+01 
3.045232727534e+01 3.343968005440e+01 
3.071072777593e+01 3.343957992572e+01 
3.096654427236e+01 3.343948133978e+01 
3.121980260356e+01 3.343938427331e+01 
3.147052835114e+01 3.343928870334e+01 
3.171874684191e+01 3.343919460719e+01 
3.196448314775e+01 3.343910196250e+01 
3.220776209068e+01 3.343901074721e+01 
3.244860824528e+01 3.343892093957e+01 
3.268704593837e+01 3.343883251808e+01 
3.292309925398e+01 3.343874546159e+01 
3.315679203553e+01 3.343865974919e+01 
3.338814788810e+01 3.343857536029e+01 
3.361719018312e+01 3.343849227456e+01 
3.384394205528e+01 3.343841047197e+01 
3.406842640979e+01 3.343832993274e+01 
3.429066592179e+01 3.343825063739e+01 
3.451068303831e+01 3.343817256670e+01 
3.472849998281e+01 3.343809570172e+01 
3.494413875706e+01 3.343802002378e+01 
3.515762114292e+01 3.343794551444e+01 
3.536896870415e+01 3.343787215556e+01 
3.557820279075e+01 3.343779992924e+01 
3.578534453803e+01 3.343772881782e+01 
3.599041486827e+01 3.343765880392e+01 
3.619343449495e+01 3.343758987039e+01 
3.639442392435e+01 3.343752200033e+01 
3.659340345961e+01 3.343745517709e+01 
3.679039319964e+01 3.343738938427e+01 
3.698541304317e+01 3.343732460568e+01 
3.717848269014e+01 3.343726082539e+01 
3.736962164057e+01 3.343719802770e+01 
3.755884920075e+01 3.343713619713e+01 
3.774618448500e+01 3.343707531843e+01 
3.793164641659e+01 3.343701537660e+01 
3.811525372906e+01 3.343695635682e+01 
3.829702496733e+01 3.343689824451e+01 
3.847697849152e+01 3.343684102533e+01 
3.865513248058e+01 3.343678468512e+01 
3.883150493074e+01 3.343672920994e+01 
3.900611365655e+01 3.343667458607e+01 
3.917897629446e+01 3.343662079999e+01 
3.935011030642e+01 3.343656783838e+01 
3.951953297809e+01 3.343651568814e+01 
3.968726142242e+01 3.343646433634e+01 
3.985331258304e+01 3.343641377027e+01 
4.001770323246e+01 3.343636397740e+01 
4.018044997549e+01 3.343631494540e+01 
4.034156924992e+01 3.343626666213e+01 
4.050107733253e+01 3.343621911563e+01 
4.065899033443e+01 3.343617229413e+01 
4.081532420440e+01 3.343612618604e+01 
4.097009473731e+01 3.343608077995e+01 
4.112331756678e+01 3.343603606461e+01 
4.127500816843e+01 3.343599202898e+01 
4.142518186295e+01 3.343594866216e+01 
4.157385381927e+01 3.343590595344e+01 
4.172103905489e+01 3.343586389227e+01 
4.186675243900e+01 3.343582246826e+01 
4.201100869018e+01 3.343578167120e+01 
4.215382237679e+01 3.343574149102e+01 
4.229520792782e+01 3.343570191783e+01 
4.243517962516e+01 3.343566294187e+01 
4.257375160408e+01 3.343562455357e+01 
4.271093786381e+01 3.343558674347e+01 
4.284675226251e+01 3.343554950231e+01 
4.298120851489e+01 3.343551282093e+01 
4.311432020285e+01 3.343547669034e+01 
4.324610077551e+01 3.343544110169e+01 
4.337656354411e+01 3.343540604629e+01 
4.350572168471e+01 3.343537151555e+01 
4.363358824350e+01 3.343533750105e+01 
4.376017613676e+01 3.343530399450e+01 
4.388549815090e+01 3.343527098774e+01 
4.400956694499e+01 3.343523847273e+01 
4.413239505073e+01 3.343520644159e+01 
4.425399487499e+01 3.343517488653e+01 
4.437437870229e+01 3.343514379993e+01 
4.449355869202e+01 3.343511317425e+01 
4.461154688098e+01 3.343508300210e+01 
4.472835518834e+01 3.343505327621e+01 
4.484399541287e+01 3.343502398941e+01 
4.495847923529e+01 3.343499513468e+01 
4.507181821802e+01 3.343496670507e+01 
4.518402381017e+01 3.343493869379e+01 
4.529510734716e+01 3.343491109413e+01 
4.540508004780e+01 3.343488389951e+01 
4.551395302183e+01 3.343485710343e+01 
4.562173726687e+01 3.343483069954e+01 
4.572844366807e+01 3.343480468155e+01 
4.583408300554e+01 3.343477904330e+01 
4.593866595121e+01 3.343475377874e+01 
4.604220306587e+01 3.343472888189e+01 
4.614470480911e+01 3.343470434690e+01 
4.624618153614e+01 3.343468016799e+01 
4.634664349472e+01 3.343465633949e+01 
4.644610083506e+01 3.343463285583e+01 
4.654456360396e+01 3.343460971151e+01 
4.664204174431e+01 3.343458690116e+01 
4.673854510229e+01 3.343456441945e+01 
4.683408342676e+01 3.343454226118e+01 
4.692866636858e+01 3.343452042122e+01 
4.702230347994e+01 3.343449889452e+01 
4.711500421896e+01 3.343447767613e+01 
4.720677795154e+01 3.343445676116e+01 
4.729763394801e+01 3.343443614483e+01 
4.738758138504e+01 3.343441582241e+01 
4.747662934750e+01 3.343439578927e+01 
4.756478683027e+01 3.343437604086e+01 
4.765206273743e+01 3.343435657268e+01 
4.773846588410e+01 3.343433738033e+01 
4.782400500080e+01 3.343431845947e+01 
4.790868872733e+01 3.343429980585e+01 
4.799252561459e+01 3.343428141527e+01 
4.807552413152e+01 3.343426328361e+01 
4.815769266416e+01 3.343424540682e+01 
4.823903951209e+01 3.343422778092e+01 
4.831957289281e+01 3.343421040198e+01 
4.839930094066e+01 3.343419326616e+01 
4.847823170596e+01 3.343417636967e+01 
4.855637316187e+01 3.343415970878e+01 
4.863373320329e+01 3.343414327982e+01 
4.871031964588e+01 3.343412707921e+01 
4.878614022500e+01 3.343411110338e+01 
4.886120259732e+01 3.343409534887e+01 
4.893551434498e+01 3.343407981224e+01 
4.900908297708e+01 3.343406449014e+01 
