 TITLE = "Profiles along polylines"
 VARIABLES = "DIST" "HEAD" 
 ZONE T="TIME=0.000000000000e+00"
3.221421045274e+00 0.000000000000e+00 
3.252824449500e+00 0.000000000000e+00 
3.284322849266e+00 0.000000000000e+00 
3.644253989540e+00 0.000000000000e+00 
3.675657393765e+00 0.000000000000e+00 
3.707155793532e+00 0.000000000000e+00 
4.062858606679e+00 0.000000000000e+00 
4.094262010905e+00 0.000000000000e+00 
4.125760410671e+00 0.000000000000e+00 
4.477277176549e+00 0.000000000000e+00 
4.508680580775e+00 0.000000000000e+00 
4.540178980541e+00 0.000000000000e+00 
4.887551560568e+00 0.000000000000e+00 
4.918954964794e+00 0.000000000000e+00 
4.950453364560e+00 0.000000000000e+00 
5.293723202221e+00 0.000000000000e+00 
5.325126606447e+00 0.000000000000e+00 
5.356625006213e+00 0.000000000000e+00 
5.695833127643e+00 0.000000000000e+00 
5.727236531869e+00 0.000000000000e+00 
5.758734931635e+00 0.000000000000e+00 
6.093921953892e+00 0.000000000000e+00 
6.125325358118e+00 0.000000000000e+00 
6.156823757884e+00 0.000000000000e+00 
6.488029891905e+00 0.000000000000e+00 
6.519433296130e+00 0.000000000000e+00 
6.550931695897e+00 0.000000000000e+00 
6.878196749386e+00 0.000000000000e+00 
6.909600153612e+00 0.000000000000e+00 
6.941098553378e+00 0.000000000000e+00 
7.264461936246e+00 0.000000000000e+00 
7.295865340472e+00 0.000000000000e+00 
7.327363740238e+00 0.000000000000e+00 
7.646864472538e+00 0.000000000000e+00 
7.678267876764e+00 0.000000000000e+00 
7.709766276530e+00 0.000000000000e+00 
8.025442983176e+00 0.000000000000e+00 
8.056846387402e+00 0.000000000000e+00 
8.088344787168e+00 0.000000000000e+00 
8.400235708521e+00 0.000000000000e+00 
8.431639112746e+00 0.000000000000e+00 
8.463137512513e+00 0.000000000000e+00 
8.771280506666e+00 0.000000000000e+00 
8.802683910892e+00 0.000000000000e+00 
8.834182310658e+00 0.000000000000e+00 
9.138614856038e+00 0.000000000000e+00 
9.170018260264e+00 0.000000000000e+00 
9.201516660030e+00 0.000000000000e+00 
9.502275862799e+00 0.000000000000e+00 
9.533679267025e+00 0.000000000000e+00 
9.565177666791e+00 0.000000000000e+00 
9.862300257976e+00 0.000000000000e+00 
9.893703662202e+00 0.000000000000e+00 
9.925202061968e+00 0.000000000000e+00 
1.021872441009e+01 0.000000000000e+00 
1.025012781431e+01 0.000000000000e+00 
1.028162621408e+01 0.000000000000e+00 
1.057158432195e+01 0.000000000000e+00 
1.060298772617e+01 0.000000000000e+00 
1.063448612594e+01 0.000000000000e+00 
1.092091563542e+01 0.000000000000e+00 
1.095231903965e+01 0.000000000000e+00 
1.098381743941e+01 0.000000000000e+00 
1.126675363591e+01 0.000000000000e+00 
1.129815704014e+01 0.000000000000e+00 
1.132965543990e+01 0.000000000000e+00 
1.160913325435e+01 0.000000000000e+00 
1.164053665857e+01 0.000000000000e+00 
1.167203505834e+01 0.000000000000e+00 
1.194808907679e+01 0.000000000000e+00 
1.197949248102e+01 0.000000000000e+00 
1.201099088078e+01 0.000000000000e+00 
1.228365534092e+01 0.000000000000e+00 
1.231505874515e+01 0.000000000000e+00 
1.234655714492e+01 0.000000000000e+00 
1.261586594303e+01 0.000000000000e+00 
1.264726934726e+01 0.000000000000e+00 
1.267876774702e+01 0.000000000000e+00 
1.294475443951e+01 0.000000000000e+00 
1.297615784374e+01 0.000000000000e+00 
1.300765624351e+01 0.000000000000e+00 
1.327035405117e+01 0.000000000000e+00 
1.330175745539e+01 0.000000000000e+00 
1.333325585516e+01 0.000000000000e+00 
1.359269766715e+01 0.000000000000e+00 
1.362410107138e+01 0.000000000000e+00 
1.365559947114e+01 0.000000000000e+00 
1.391181784650e+01 0.000000000000e+00 
1.394322125073e+01 0.000000000000e+00 
1.397471965049e+01 0.000000000000e+00 
1.422774682462e+01 0.000000000000e+00 
1.425915022884e+01 0.000000000000e+00 
1.429064862861e+01 0.000000000000e+00 
1.454051651197e+01 0.000000000000e+00 
1.457191991619e+01 0.000000000000e+00 
1.460341831596e+01 0.000000000000e+00 
1.485015850316e+01 0.000000000000e+00 
1.488156190738e+01 0.000000000000e+00 
1.491306030715e+01 0.000000000000e+00 
1.515670407537e+01 0.000000000000e+00 
1.518810747960e+01 0.000000000000e+00 
1.521960587937e+01 0.000000000000e+00 
1.546018418957e+01 0.000000000000e+00 
1.549158759380e+01 0.000000000000e+00 
1.552308599357e+01 0.000000000000e+00 
1.576062950194e+01 0.000000000000e+00 
1.579203290617e+01 0.000000000000e+00 
1.582353130593e+01 0.000000000000e+00 
1.605807036215e+01 0.000000000000e+00 
1.608947376638e+01 0.000000000000e+00 
1.612097216615e+01 0.000000000000e+00 
1.635253681434e+01 0.000000000000e+00 
1.638394021856e+01 0.000000000000e+00 
1.641543861833e+01 0.000000000000e+00 
1.664405860312e+01 0.000000000000e+00 
1.667546200734e+01 0.000000000000e+00 
1.670696040711e+01 0.000000000000e+00 
1.693266517437e+01 0.000000000000e+00 
1.696406857860e+01 0.000000000000e+00 
1.699556697836e+01 0.000000000000e+00 
1.721838567861e+01 0.000000000000e+00 
1.724978908284e+01 0.000000000000e+00 
1.728128748261e+01 0.000000000000e+00 
1.750124897684e+01 0.000000000000e+00 
1.753265238107e+01 0.000000000000e+00 
1.756415078084e+01 0.000000000000e+00 
1.778128364112e+01 0.000000000000e+00 
1.781268704535e+01 0.000000000000e+00 
1.784418544511e+01 0.000000000000e+00 
1.805851795775e+01 0.000000000000e+00 
1.808992136198e+01 0.000000000000e+00 
1.812141976175e+01 0.000000000000e+00 
1.833297993297e+01 0.000000000000e+00 
1.836438333720e+01 0.000000000000e+00 
1.839588173696e+01 0.000000000000e+00 
1.860469729070e+01 0.000000000000e+00 
1.863610069493e+01 0.000000000000e+00 
1.866759909469e+01 0.000000000000e+00 
1.887369747561e+01 0.000000000000e+00 
1.890510087984e+01 0.000000000000e+00 
1.893659927961e+01 0.000000000000e+00 
1.914000765865e+01 0.000000000000e+00 
1.917141106287e+01 0.000000000000e+00 
1.920290946264e+01 0.000000000000e+00 
1.940365473725e+01 0.000000000000e+00 
1.943505814148e+01 0.000000000000e+00 
1.946655654125e+01 0.000000000000e+00 
1.966466534351e+01 0.000000000000e+00 
1.969606874773e+01 0.000000000000e+00 
1.972756714750e+01 0.000000000000e+00 
1.992306584409e+01 0.000000000000e+00 
1.995446924832e+01 0.000000000000e+00 
1.998596764808e+01 0.000000000000e+00 
2.017888234052e+01 0.000000000000e+00 
2.021028574475e+01 0.000000000000e+00 
2.024178414451e+01 0.000000000000e+00 
2.043214067172e+01 0.000000000000e+00 
2.046354407594e+01 0.000000000000e+00 
2.049504247571e+01 0.000000000000e+00 
2.068286641931e+01 0.000000000000e+00 
2.071426982353e+01 0.000000000000e+00 
2.074576822330e+01 0.000000000000e+00 
2.093108491007e+01 0.000000000000e+00 
2.096248831430e+01 0.000000000000e+00 
2.099398671406e+01 0.000000000000e+00 
2.117682121591e+01 0.000000000000e+00 
2.120822462013e+01 0.000000000000e+00 
2.123972301990e+01 0.000000000000e+00 
2.142010015884e+01 0.000000000000e+00 
2.145150356307e+01 0.000000000000e+00 
2.148300196283e+01 0.000000000000e+00 
2.166094631345e+01 0.000000000000e+00 
2.169234971767e+01 0.000000000000e+00 
2.172384811744e+01 0.000000000000e+00 
2.189938400654e+01 0.000000000000e+00 
2.193078741076e+01 0.000000000000e+00 
2.196228581053e+01 0.000000000000e+00 
2.213543732215e+01 0.000000000000e+00 
2.216684072637e+01 0.000000000000e+00 
2.219833912614e+01 0.000000000000e+00 
2.236913010369e+01 0.000000000000e+00 
2.240053350792e+01 0.000000000000e+00 
2.243203190768e+01 0.000000000000e+00 
2.260048595626e+01 0.000000000000e+00 
2.263188936049e+01 0.000000000000e+00 
2.266338776026e+01 0.000000000000e+00 
2.282952825129e+01 0.000000000000e+00 
2.286093165552e+01 0.000000000000e+00 
2.289243005528e+01 0.000000000000e+00 
2.305628012344e+01 0.000000000000e+00 
2.308768352767e+01 0.000000000000e+00 
2.311918192744e+01 0.000000000000e+00 
2.328076447796e+01 0.000000000000e+00 
2.331216788219e+01 0.000000000000e+00 
2.334366628195e+01 0.000000000000e+00 
2.350300398996e+01 0.000000000000e+00 
2.353440739418e+01 0.000000000000e+00 
2.356590579395e+01 0.000000000000e+00 
2.372302110648e+01 0.000000000000e+00 
2.375442451070e+01 0.000000000000e+00 
2.378592291047e+01 0.000000000000e+00 
2.394083805098e+01 0.000000000000e+00 
2.397224145521e+01 0.000000000000e+00 
2.400373985497e+01 0.000000000000e+00 
2.415647682523e+01 0.000000000000e+00 
2.418788022946e+01 0.000000000000e+00 
2.421937862923e+01 0.000000000000e+00 
2.436995921109e+01 0.000000000000e+00 
2.440136261531e+01 0.000000000000e+00 
2.443286101508e+01 0.000000000000e+00 
2.458130677232e+01 0.000000000000e+00 
2.461271017654e+01 0.000000000000e+00 
2.464420857631e+01 0.000000000000e+00 
2.479054085892e+01 0.000000000000e+00 
2.482194426314e+01 0.000000000000e+00 
2.485344266291e+01 0.000000000000e+00 
2.499768260620e+01 0.000000000000e+00 
2.502908601042e+01 0.000000000000e+00 
2.506058441019e+01 0.000000000000e+00 
2.520275293644e+01 0.000000000000e+00 
2.523415634066e+01 0.000000000000e+00 
2.526565474043e+01 0.000000000000e+00 
2.540577256313e+01 0.000000000000e+00 
2.543717596735e+01 0.000000000000e+00 
2.546867436712e+01 0.000000000000e+00 
2.560676199252e+01 0.000000000000e+00 
2.563816539674e+01 0.000000000000e+00 
2.566966379651e+01 0.000000000000e+00 
2.580574152778e+01 0.000000000000e+00 
2.583714493201e+01 0.000000000000e+00 
2.586864333177e+01 0.000000000000e+00 
2.600273126781e+01 0.000000000000e+00 
2.603413467204e+01 0.000000000000e+00 
2.606563307180e+01 0.000000000000e+00 
2.619775111134e+01 0.000000000000e+00 
2.622915451556e+01 0.000000000000e+00 
2.626065291533e+01 0.000000000000e+00 
2.639082075832e+01 0.000000000000e+00 
2.642222416254e+01 0.000000000000e+00 
2.645372256231e+01 0.000000000000e+00 
2.658195970874e+01 0.000000000000e+00 
2.661336311296e+01 0.000000000000e+00 
2.664486151273e+01 0.000000000000e+00 
2.677118726892e+01 0.000000000000e+00 
2.680259067315e+01 0.000000000000e+00 
2.683408907291e+01 0.000000000000e+00 
2.695852255317e+01 0.000000000000e+00 
2.698992595740e+01 0.000000000000e+00 
2.702142435716e+01 0.000000000000e+00 
2.714398448477e+01 0.000000000000e+00 
2.717538788899e+01 0.000000000000e+00 
2.720688628876e+01 0.000000000000e+00 
2.732759179724e+01 0.000000000000e+00 
2.735899520146e+01 0.000000000000e+00 
2.739049360123e+01 0.000000000000e+00 
2.750936303551e+01 0.000000000000e+00 
2.754076643974e+01 0.000000000000e+00 
2.757226483950e+01 0.000000000000e+00 
2.768931655970e+01 0.000000000000e+00 
2.772071996392e+01 0.000000000000e+00 
2.775221836369e+01 0.000000000000e+00 
2.786747054875e+01 0.000000000000e+00 
2.789887395298e+01 0.000000000000e+00 
2.793037235275e+01 0.000000000000e+00 
2.804384299892e+01 0.000000000000e+00 
2.807524640314e+01 0.000000000000e+00 
2.810674480291e+01 0.000000000000e+00 
2.821845172472e+01 0.000000000000e+00 
2.824985512895e+01 0.000000000000e+00 
2.828135352872e+01 0.000000000000e+00 
2.839131436264e+01 0.000000000000e+00 
2.842271776687e+01 0.000000000000e+00 
2.845421616663e+01 0.000000000000e+00 
2.856244837460e+01 0.000000000000e+00 
2.859385177883e+01 0.000000000000e+00 
2.862535017859e+01 0.000000000000e+00 
2.873187104627e+01 0.000000000000e+00 
2.876327445049e+01 0.000000000000e+00 
2.879477285026e+01 0.000000000000e+00 
2.889959949060e+01 0.000000000000e+00 
2.893100289482e+01 0.000000000000e+00 
2.896250129459e+01 0.000000000000e+00 
2.906565065122e+01 0.000000000000e+00 
2.909705405544e+01 0.000000000000e+00 
2.912855245521e+01 0.000000000000e+00 
2.923004130064e+01 0.000000000000e+00 
2.926144470487e+01 0.000000000000e+00 
2.929294310463e+01 0.000000000000e+00 
2.939278804366e+01 0.000000000000e+00 
2.942419144789e+01 0.000000000000e+00 
2.945568984766e+01 0.000000000000e+00 
2.955390731810e+01 0.000000000000e+00 
2.958531072232e+01 0.000000000000e+00 
2.961680912209e+01 0.000000000000e+00 
2.971341540071e+01 0.000000000000e+00 
2.974481880494e+01 0.000000000000e+00 
2.977631720471e+01 0.000000000000e+00 
2.987132840261e+01 0.000000000000e+00 
2.990273180683e+01 0.000000000000e+00 
2.993423020660e+01 0.000000000000e+00 
3.002766227258e+01 0.000000000000e+00 
3.005906567681e+01 0.000000000000e+00 
3.009056407657e+01 0.000000000000e+00 
3.018243280549e+01 0.000000000000e+00 
3.021383620972e+01 0.000000000000e+00 
3.024533460948e+01 0.000000000000e+00 
3.033565563496e+01 0.000000000000e+00 
3.036705903919e+01 0.000000000000e+00 
3.039855743895e+01 0.000000000000e+00 
3.048734623661e+01 0.000000000000e+00 
3.051874964083e+01 0.000000000000e+00 
3.055024804060e+01 0.000000000000e+00 
3.063751993113e+01 0.000000000000e+00 
3.066892333536e+01 0.000000000000e+00 
3.070042173512e+01 0.000000000000e+00 
3.078619188745e+01 0.000000000000e+00 
3.081759529167e+01 0.000000000000e+00 
3.084909369144e+01 0.000000000000e+00 
3.093337712307e+01 0.000000000000e+00 
3.096478052729e+01 0.000000000000e+00 
3.099627892706e+01 0.000000000000e+00 
3.107909050719e+01 0.000000000000e+00 
3.111049391141e+01 0.000000000000e+00 
3.114199231118e+01 0.000000000000e+00 
3.122334675836e+01 0.000000000000e+00 
3.125475016258e+01 0.000000000000e+00 
3.128624856235e+01 0.000000000000e+00 
3.136616044497e+01 0.000000000000e+00 
3.139756384920e+01 0.000000000000e+00 
3.142906224896e+01 0.000000000000e+00 
3.150754599600e+01 0.000000000000e+00 
3.153894940022e+01 0.000000000000e+00 
3.157044779999e+01 0.000000000000e+00 
3.164751769335e+01 0.000000000000e+00 
3.167892109757e+01 0.000000000000e+00 
3.171041949734e+01 0.000000000000e+00 
3.178608967226e+01 0.000000000000e+00 
3.181749307649e+01 0.000000000000e+00 
3.184899147625e+01 0.000000000000e+00 
3.192327593199e+01 0.000000000000e+00 
3.195467933622e+01 0.000000000000e+00 
3.198617773599e+01 0.000000000000e+00 
3.205909033070e+01 0.000000000000e+00 
3.209049373492e+01 0.000000000000e+00 
3.212199213469e+01 0.000000000000e+00 
3.219354658308e+01 0.000000000000e+00 
3.222494998730e+01 0.000000000000e+00 
3.225644838707e+01 0.000000000000e+00 
3.232665827104e+01 0.000000000000e+00 
3.235806167526e+01 0.000000000000e+00 
3.238956007503e+01 0.000000000000e+00 
3.245843884370e+01 0.000000000000e+00 
3.248984224792e+01 0.000000000000e+00 
3.252134064769e+01 0.000000000000e+00 
3.258890161230e+01 0.000000000000e+00 
3.262030501652e+01 0.000000000000e+00 
3.265180341629e+01 0.000000000000e+00 
3.271805975289e+01 0.000000000000e+00 
3.274946315712e+01 0.000000000000e+00 
3.278096155689e+01 0.000000000000e+00 
3.284592631168e+01 0.000000000000e+00 
3.287732971591e+01 0.000000000000e+00 
3.290882811568e+01 0.000000000000e+00 
3.297251420495e+01 0.000000000000e+00 
3.300391760917e+01 0.000000000000e+00 
3.303541600894e+01 0.000000000000e+00 
3.309783621909e+01 0.000000000000e+00 
3.312923962331e+01 0.000000000000e+00 
3.316073802308e+01 0.000000000000e+00 
3.322190501318e+01 0.000000000000e+00 
3.325330841740e+01 0.000000000000e+00 
3.328480681717e+01 0.000000000000e+00 
3.334473311892e+01 0.000000000000e+00 
3.337613652314e+01 0.000000000000e+00 
3.340763492291e+01 0.000000000000e+00 
3.346633294318e+01 0.000000000000e+00 
3.349773634741e+01 0.000000000000e+00 
3.352923474717e+01 0.000000000000e+00 
3.358671677048e+01 0.000000000000e+00 
3.361812017471e+01 0.000000000000e+00 
3.364961857447e+01 0.000000000000e+00 
3.370589676021e+01 0.000000000000e+00 
3.373730016444e+01 0.000000000000e+00 
3.376879856420e+01 0.000000000000e+00 
3.382388494916e+01 0.000000000000e+00 
3.385528835339e+01 0.000000000000e+00 
3.388678675315e+01 0.000000000000e+00 
3.394069325652e+01 0.000000000000e+00 
3.397209666075e+01 0.000000000000e+00 
3.400359506052e+01 0.000000000000e+00 
3.405633348105e+01 0.000000000000e+00 
3.408773688528e+01 0.000000000000e+00 
3.411923528504e+01 0.000000000000e+00 
3.417081730347e+01 0.000000000000e+00 
3.420222070770e+01 0.000000000000e+00 
3.423371910747e+01 0.000000000000e+00 
3.428415628621e+01 0.000000000000e+00 
3.431555969043e+01 0.000000000000e+00 
3.434705809020e+01 0.000000000000e+00 
3.439636187836e+01 0.000000000000e+00 
3.442776528259e+01 0.000000000000e+00 
3.445926368235e+01 0.000000000000e+00 
3.450744541534e+01 0.000000000000e+00 
3.453884881957e+01 0.000000000000e+00 
3.457034721934e+01 0.000000000000e+00 
3.461741811598e+01 0.000000000000e+00 
3.464882152021e+01 0.000000000000e+00 
3.468031991998e+01 0.000000000000e+00 
3.472629109002e+01 0.000000000000e+00 
3.475769449424e+01 0.000000000000e+00 
3.478919289401e+01 0.000000000000e+00 
3.483407533506e+01 0.000000000000e+00 
3.486547873929e+01 0.000000000000e+00 
3.489697713905e+01 0.000000000000e+00 
3.494078173626e+01 0.000000000000e+00 
3.497218514049e+01 0.000000000000e+00 
3.500368354025e+01 0.000000000000e+00 
3.504642107372e+01 0.000000000000e+00 
3.507782447795e+01 0.000000000000e+00 
3.510932287772e+01 0.000000000000e+00 
3.515100401940e+01 0.000000000000e+00 
3.518240742363e+01 0.000000000000e+00 
3.521390582339e+01 0.000000000000e+00 
3.525454113406e+01 0.000000000000e+00 
3.528594453828e+01 0.000000000000e+00 
3.531744293805e+01 0.000000000000e+00 
3.535704287730e+01 0.000000000000e+00 
3.538844628153e+01 0.000000000000e+00 
3.541994468129e+01 0.000000000000e+00 
3.545851960433e+01 0.000000000000e+00 
3.548992300856e+01 0.000000000000e+00 
3.552142140832e+01 0.000000000000e+00 
3.555898156291e+01 0.000000000000e+00 
3.559038496714e+01 0.000000000000e+00 
3.562188336690e+01 0.000000000000e+00 
3.565843890325e+01 0.000000000000e+00 
3.568984230748e+01 0.000000000000e+00 
3.572134070724e+01 0.000000000000e+00 
3.575690167215e+01 0.000000000000e+00 
3.578830507638e+01 0.000000000000e+00 
3.581980347614e+01 0.000000000000e+00 
3.585437981249e+01 0.000000000000e+00 
3.588578321672e+01 0.000000000000e+00 
3.591728161649e+01 0.000000000000e+00 
3.595088317048e+01 0.000000000000e+00 
3.598228657470e+01 0.000000000000e+00 
3.601378497447e+01 0.000000000000e+00 
3.604642149495e+01 0.000000000000e+00 
3.607782489918e+01 0.000000000000e+00 
3.610932329895e+01 0.000000000000e+00 
3.614100443677e+01 0.000000000000e+00 
3.617240784100e+01 0.000000000000e+00 
3.620390624076e+01 0.000000000000e+00 
3.623464154813e+01 0.000000000000e+00 
3.626604495236e+01 0.000000000000e+00 
3.629754335212e+01 0.000000000000e+00 
3.632734228715e+01 0.000000000000e+00 
3.635874569137e+01 0.000000000000e+00 
3.639024409114e+01 0.000000000000e+00 
3.641911601973e+01 0.000000000000e+00 
3.645051942395e+01 0.000000000000e+00 
3.648201782372e+01 0.000000000000e+00 
3.650997201620e+01 0.000000000000e+00 
3.654137542042e+01 0.000000000000e+00 
3.657287382019e+01 0.000000000000e+00 
3.659991945323e+01 0.000000000000e+00 
3.663132285746e+01 0.000000000000e+00 
3.666282125722e+01 0.000000000000e+00 
3.668896741569e+01 0.000000000000e+00 
3.672037081992e+01 0.000000000000e+00 
3.675186921968e+01 0.000000000000e+00 
3.677712489846e+01 0.000000000000e+00 
3.680852830268e+01 0.000000000000e+00 
3.684002670245e+01 0.000000000000e+00 
3.686440080562e+01 0.000000000000e+00 
3.689580420984e+01 0.000000000000e+00 
3.692730260961e+01 0.000000000000e+00 
3.695080395229e+01 0.000000000000e+00 
3.698220735651e+01 0.000000000000e+00 
3.701370575628e+01 0.000000000000e+00 
3.703634306899e+01 0.000000000000e+00 
3.706774647322e+01 0.000000000000e+00 
3.709924487298e+01 0.000000000000e+00 
3.712102679552e+01 0.000000000000e+00 
3.715243019975e+01 0.000000000000e+00 
3.718392859951e+01 0.000000000000e+00 
3.720486368278e+01 0.000000000000e+00 
3.723626708700e+01 0.000000000000e+00 
3.726776548677e+01 0.000000000000e+00 
3.728786219971e+01 0.000000000000e+00 
3.731926560393e+01 0.000000000000e+00 
3.735076400370e+01 0.000000000000e+00 
3.737003073235e+01 0.000000000000e+00 
3.740143413657e+01 0.000000000000e+00 
3.743293253634e+01 0.000000000000e+00 
3.745137758028e+01 0.000000000000e+00 
3.748278098451e+01 0.000000000000e+00 
3.751427938427e+01 0.000000000000e+00 
3.753191096100e+01 0.000000000000e+00 
3.756331436522e+01 0.000000000000e+00 
3.759481276499e+01 0.000000000000e+00 
3.761163900885e+01 0.000000000000e+00 
3.764304241307e+01 0.000000000000e+00 
3.767454081284e+01 0.000000000000e+00 
3.769056977415e+01 0.000000000000e+00 
3.772197317838e+01 0.000000000000e+00 
3.775347157815e+01 0.000000000000e+00 
3.776871123006e+01 0.000000000000e+00 
3.780011463429e+01 0.000000000000e+00 
3.783161303406e+01 0.000000000000e+00 
3.784607127148e+01 0.000000000000e+00 
3.787747467571e+01 0.000000000000e+00 
3.790897307548e+01 0.000000000000e+00 
3.792265771407e+01 0.000000000000e+00 
3.795406111830e+01 0.000000000000e+00 
3.798555951806e+01 0.000000000000e+00 
3.799847829319e+01 0.000000000000e+00 
3.802988169741e+01 0.000000000000e+00 
3.806138009718e+01 0.000000000000e+00 
3.807354066551e+01 0.000000000000e+00 
3.810494406973e+01 0.000000000000e+00 
3.813644246950e+01 0.000000000000e+00 
3.814785241317e+01 0.000000000000e+00 
3.817925581739e+01 0.000000000000e+00 
3.821075421716e+01 0.000000000000e+00 
3.822142104527e+01 0.000000000000e+00 
3.825282444950e+01 0.000000000000e+00 
3.828432284927e+01 0.000000000000e+00 
 TITLE = "Profiles along polylines"
 VARIABLES = "DIST" "HEAD" 
 ZONE T="TIME=1.797693134862e+308"
3.221421045274e+00 3.436331620399e+01 
3.252824449500e+00 3.436192193042e+01 
3.284322849266e+00 3.436050984716e+01 
3.644253989540e+00 3.436317848941e+01 
3.675657393765e+00 3.436178410205e+01 
3.707155793532e+00 3.436037190466e+01 
4.062858606679e+00 3.436304365980e+01 
4.094262010905e+00 3.436164915979e+01 
4.125760410671e+00 3.436023684941e+01 
4.477277176549e+00 3.436291165706e+01 
4.508680580775e+00 3.436151704553e+01 
4.540178980541e+00 3.436010462328e+01 
4.887551560568e+00 3.436278242350e+01 
4.918954964794e+00 3.436138770154e+01 
4.950453364560e+00 3.435997516855e+01 
5.293723202221e+00 3.436265590244e+01 
5.325126606447e+00 3.436126107117e+01 
5.356625006213e+00 3.435984842853e+01 
5.695833127643e+00 3.436253203839e+01 
5.727236531869e+00 3.436113709890e+01 
5.758734931635e+00 3.435972434772e+01 
6.093921953892e+00 3.436241077703e+01 
6.125325358118e+00 3.436101573040e+01 
6.156823757884e+00 3.435960287176e+01 
6.488029891905e+00 3.436229206514e+01 
6.519433296130e+00 3.436089691245e+01 
6.550931695897e+00 3.435948394741e+01 
6.878196749386e+00 3.436217585060e+01 
6.909600153612e+00 3.436078059290e+01 
6.941098553378e+00 3.435936752254e+01 
7.264461936246e+00 3.436206208235e+01 
7.295865340472e+00 3.436066672070e+01 
7.327363740238e+00 3.435925354607e+01 
7.646864472538e+00 3.436195071036e+01 
7.678267876764e+00 3.436055524580e+01 
7.709766276530e+00 3.435914196794e+01 
8.025442983176e+00 3.436184168563e+01 
8.056846387402e+00 3.436044611918e+01 
8.088344787168e+00 3.435903273913e+01 
8.400235708521e+00 3.436173496013e+01 
8.431639112746e+00 3.436033929281e+01 
8.463137512513e+00 3.435892581159e+01 
8.771280506666e+00 3.436163048680e+01 
8.802683910892e+00 3.436023471962e+01 
8.834182310658e+00 3.435882113824e+01 
9.138614856038e+00 3.436152821955e+01 
9.170018260264e+00 3.436013235351e+01 
9.201516660030e+00 3.435871867297e+01 
9.502275862799e+00 3.436142811319e+01 
9.533679267025e+00 3.436003214928e+01 
9.565177666791e+00 3.435861837057e+01 
9.862300257976e+00 3.436133012348e+01 
9.893703662202e+00 3.435993406268e+01 
9.925202061968e+00 3.435852018678e+01 
1.021872441009e+01 3.436123420704e+01 
1.025012781431e+01 3.435983805031e+01 
1.028162621408e+01 3.435842407820e+01 
1.057158432195e+01 3.436114032138e+01 
1.060298772617e+01 3.435974406969e+01 
1.063448612594e+01 3.435833000233e+01 
1.092091563542e+01 3.436104842487e+01 
1.095231903965e+01 3.435965207917e+01 
1.098381743941e+01 3.435823791750e+01 
1.126675363591e+01 3.436095847672e+01 
1.129815704014e+01 3.435956203794e+01 
1.132965543990e+01 3.435814778292e+01 
1.160913325435e+01 3.436087043695e+01 
1.164053665857e+01 3.435947390603e+01 
1.167203505834e+01 3.435805955858e+01 
1.194808907679e+01 3.436078426641e+01 
1.197949248102e+01 3.435938764426e+01 
1.201099088078e+01 3.435797320532e+01 
1.228365534092e+01 3.436069992672e+01 
1.231505874515e+01 3.435930321427e+01 
1.234655714492e+01 3.435788868474e+01 
1.261586594303e+01 3.436061738030e+01 
1.264726934726e+01 3.435922057844e+01 
1.267876774702e+01 3.435780595923e+01 
1.294475443951e+01 3.436053659030e+01 
1.297615784374e+01 3.435913969993e+01 
1.300765624351e+01 3.435772499194e+01 
1.327035405117e+01 3.436045752064e+01 
1.330175745539e+01 3.435906054264e+01 
1.333325585516e+01 3.435764574676e+01 
1.359269766715e+01 3.436038013595e+01 
1.362410107138e+01 3.435898307120e+01 
1.365559947114e+01 3.435756818830e+01 
1.391181784650e+01 3.436030440159e+01 
1.394322125073e+01 3.435890725095e+01 
1.397471965049e+01 3.435749228191e+01 
1.422774682462e+01 3.436023028361e+01 
1.425915022884e+01 3.435883304795e+01 
1.429064862861e+01 3.435741799362e+01 
1.454051651197e+01 3.436015774876e+01 
1.457191991619e+01 3.435876042892e+01 
1.460341831596e+01 3.435734529016e+01 
1.485015850316e+01 3.436008676444e+01 
1.488156190738e+01 3.435868936127e+01 
1.491306030715e+01 3.435727413893e+01 
1.515670407537e+01 3.436001729873e+01 
1.518810747960e+01 3.435861981306e+01 
1.521960587937e+01 3.435720450797e+01 
1.546018418957e+01 3.435994932036e+01 
1.549158759380e+01 3.435855175301e+01 
1.552308599357e+01 3.435713636600e+01 
1.576062950194e+01 3.435988279866e+01 
1.579203290617e+01 3.435848515046e+01 
1.582353130593e+01 3.435706968234e+01 
1.605807036215e+01 3.435981770362e+01 
1.608947376638e+01 3.435841997537e+01 
1.612097216615e+01 3.435700442696e+01 
1.635253681434e+01 3.435975400582e+01 
1.638394021856e+01 3.435835619831e+01 
1.641543861833e+01 3.435694057042e+01 
1.664405860312e+01 3.435969167643e+01 
1.667546200734e+01 3.435829379046e+01 
1.670696040711e+01 3.435687808387e+01 
1.693266517437e+01 3.435963068721e+01 
1.696406857860e+01 3.435823272357e+01 
1.699556697836e+01 3.435681693907e+01 
1.721838567861e+01 3.435957101049e+01 
1.724978908284e+01 3.435817296996e+01 
1.728128748261e+01 3.435675710833e+01 
1.750124897684e+01 3.435951261917e+01 
1.753265238107e+01 3.435811450252e+01 
1.756415078084e+01 3.435669856453e+01 
1.778128364112e+01 3.435945548669e+01 
1.781268704535e+01 3.435805729467e+01 
1.784418544511e+01 3.435664128109e+01 
1.805851795775e+01 3.435939958703e+01 
1.808992136198e+01 3.435800132040e+01 
1.812141976175e+01 3.435658523198e+01 
1.833297993297e+01 3.435934489470e+01 
1.836438333720e+01 3.435794655420e+01 
1.839588173696e+01 3.435653039169e+01 
1.860469729070e+01 3.435929138472e+01 
1.863610069493e+01 3.435789297109e+01 
1.866759909469e+01 3.435647673524e+01 
1.887369747561e+01 3.435923903262e+01 
1.890510087984e+01 3.435784054660e+01 
1.893659927961e+01 3.435642423813e+01 
1.914000765865e+01 3.435918781443e+01 
1.917141106287e+01 3.435778925674e+01 
1.920290946264e+01 3.435637287638e+01 
1.940365473725e+01 3.435913770667e+01 
1.943505814148e+01 3.435773907802e+01 
1.946655654125e+01 3.435632262649e+01 
1.966466534351e+01 3.435908868633e+01 
1.969606874773e+01 3.435768998743e+01 
1.972756714750e+01 3.435627346544e+01 
1.992306584409e+01 3.435904073085e+01 
1.995446924832e+01 3.435764196242e+01 
1.998596764808e+01 3.435622537068e+01 
2.017888234052e+01 3.435899381817e+01 
2.021028574475e+01 3.435759498088e+01 
2.024178414451e+01 3.435617832009e+01 
2.043214067172e+01 3.435894792664e+01 
2.046354407594e+01 3.435754902119e+01 
2.049504247571e+01 3.435613229203e+01 
2.068286641931e+01 3.435890303506e+01 
2.071426982353e+01 3.435750406214e+01 
2.074576822330e+01 3.435608726529e+01 
2.093108491007e+01 3.435885912267e+01 
2.096248831430e+01 3.435746008294e+01 
2.099398671406e+01 3.435604321909e+01 
2.117682121591e+01 3.435881616912e+01 
2.120822462013e+01 3.435741706326e+01 
2.123972301990e+01 3.435600013308e+01 
2.142010015884e+01 3.435877415449e+01 
2.145150356307e+01 3.435737498316e+01 
2.148300196283e+01 3.435595798730e+01 
2.166094631345e+01 3.435873305924e+01 
2.169234971767e+01 3.435733382309e+01 
2.172384811744e+01 3.435591676222e+01 
2.189938400654e+01 3.435869286426e+01 
2.193078741076e+01 3.435729356394e+01 
2.196228581053e+01 3.435587643870e+01 
2.213543732215e+01 3.435865355079e+01 
2.216684072637e+01 3.435725418694e+01 
2.219833912614e+01 3.435583699798e+01 
2.236913010369e+01 3.435861510048e+01 
2.240053350792e+01 3.435721567374e+01 
2.243203190768e+01 3.435579842169e+01 
2.260048595626e+01 3.435857749534e+01 
2.263188936049e+01 3.435717800634e+01 
2.266338776026e+01 3.435576069184e+01 
2.282952825129e+01 3.435854071776e+01 
2.286093165552e+01 3.435714116711e+01 
2.289243005528e+01 3.435572379079e+01 
2.305628012344e+01 3.435850475048e+01 
2.308768352767e+01 3.435710513880e+01 
2.311918192744e+01 3.435568770127e+01 
2.328076447796e+01 3.435846957658e+01 
2.331216788219e+01 3.435706990449e+01 
2.334366628195e+01 3.435565240635e+01 
2.350300398996e+01 3.435843517949e+01 
2.353440739418e+01 3.435703544759e+01 
2.356590579395e+01 3.435561788947e+01 
2.372302110648e+01 3.435840154301e+01 
2.375442451070e+01 3.435700175189e+01 
2.378592291047e+01 3.435558413438e+01 
2.394083805098e+01 3.435836865122e+01 
2.397224145521e+01 3.435696880148e+01 
2.400373985497e+01 3.435555112517e+01 
2.415647682523e+01 3.435833648855e+01 
2.418788022946e+01 3.435693658078e+01 
2.421937862923e+01 3.435551884625e+01 
2.436995921109e+01 3.435830503975e+01 
2.440136261531e+01 3.435690507453e+01 
2.443286101508e+01 3.435548728237e+01 
2.458130677232e+01 3.435827428987e+01 
2.461271017654e+01 3.435687426777e+01 
2.464420857631e+01 3.435545641856e+01 
2.479054085892e+01 3.435824422428e+01 
2.482194426314e+01 3.435684414587e+01 
2.485344266291e+01 3.435542624018e+01 
2.499768260620e+01 3.435821482863e+01 
2.502908601042e+01 3.435681469447e+01 
2.506058441019e+01 3.435539673286e+01 
2.520275293644e+01 3.435818608887e+01 
2.523415634066e+01 3.435678589952e+01 
2.526565474043e+01 3.435536788256e+01 
2.540577256313e+01 3.435815799125e+01 
2.543717596735e+01 3.435675774726e+01 
2.546867436712e+01 3.435533967550e+01 
2.560676199252e+01 3.435813052228e+01 
2.563816539674e+01 3.435673022420e+01 
2.566966379651e+01 3.435531209818e+01 
2.580574152778e+01 3.435810366876e+01 
2.583714493201e+01 3.435670331712e+01 
2.586864333177e+01 3.435528513739e+01 
2.600273126781e+01 3.435807741774e+01 
2.603413467204e+01 3.435667701310e+01 
2.606563307180e+01 3.435525878019e+01 
2.619775111134e+01 3.435805175657e+01 
2.622915451556e+01 3.435665129944e+01 