 TITLE = "Profiles along polylines"
 VARIABLES = "DIST" "HEAD" 
 ZONE T="TIME=0.000000000000e+00"
6.464298054018e+00 0.000000000000e+00 
6.505511738037e+00 0.000000000000e+00 
6.546850093792e+00 0.000000000000e+00 
6.887130998284e+00 0.000000000000e+00 
6.928344682303e+00 0.000000000000e+00 
6.969683038058e+00 0.000000000000e+00 
7.305735615424e+00 0.000000000000e+00 
7.346949299442e+00 0.000000000000e+00 
7.388287655197e+00 0.000000000000e+00 
7.720154185294e+00 0.000000000000e+00 
7.761367869312e+00 0.000000000000e+00 
7.802706225067e+00 0.000000000000e+00 
8.130428569313e+00 0.000000000000e+00 
8.171642253332e+00 0.000000000000e+00 
8.212980609087e+00 0.000000000000e+00 
8.536600210967e+00 0.000000000000e+00 
8.577813894985e+00 0.000000000000e+00 
8.619152250740e+00 0.000000000000e+00 
8.938710136389e+00 0.000000000000e+00 
8.979923820407e+00 0.000000000000e+00 
9.021262176162e+00 0.000000000000e+00 
9.336798962638e+00 0.000000000000e+00 
9.378012646656e+00 0.000000000000e+00 
9.419351002411e+00 0.000000000000e+00 
9.730906900651e+00 0.000000000000e+00 
9.772120584669e+00 0.000000000000e+00 
9.813458940424e+00 0.000000000000e+00 
1.012107375813e+01 0.000000000000e+00 
1.016228744215e+01 0.000000000000e+00 
1.020362579791e+01 0.000000000000e+00 
1.050733894499e+01 0.000000000000e+00 
1.054855262901e+01 0.000000000000e+00 
1.058989098477e+01 0.000000000000e+00 
1.088974148128e+01 0.000000000000e+00 
1.093095516530e+01 0.000000000000e+00 
1.097229352106e+01 0.000000000000e+00 
1.126831999192e+01 0.000000000000e+00 
1.130953367594e+01 0.000000000000e+00 
1.135087203170e+01 0.000000000000e+00 
1.164311271727e+01 0.000000000000e+00 
1.168432640129e+01 0.000000000000e+00 
1.172566475704e+01 0.000000000000e+00 
1.201415751541e+01 0.000000000000e+00 
1.205537119943e+01 0.000000000000e+00 
1.209670955519e+01 0.000000000000e+00 
1.238149186479e+01 0.000000000000e+00 
1.242270554880e+01 0.000000000000e+00 
1.246404390456e+01 0.000000000000e+00 
1.274515287155e+01 0.000000000000e+00 
1.278636655557e+01 0.000000000000e+00 
1.282770491132e+01 0.000000000000e+00 
1.310517726672e+01 0.000000000000e+00 
1.314639095074e+01 0.000000000000e+00 
1.318772930650e+01 0.000000000000e+00 
1.346160141884e+01 0.000000000000e+00 
1.350281510285e+01 0.000000000000e+00 
1.354415345861e+01 0.000000000000e+00 
1.381446133070e+01 0.000000000000e+00 
1.385567501471e+01 0.000000000000e+00 
1.389701337047e+01 0.000000000000e+00 
1.416379264417e+01 0.000000000000e+00 
1.420500632819e+01 0.000000000000e+00 
1.424634468394e+01 0.000000000000e+00 
1.450963064466e+01 0.000000000000e+00 
1.455084432868e+01 0.000000000000e+00 
1.459218268443e+01 0.000000000000e+00 
1.485201026309e+01 0.000000000000e+00 
1.489322394711e+01 0.000000000000e+00 
1.493456230287e+01 0.000000000000e+00 
1.519096608554e+01 0.000000000000e+00 
1.523217976956e+01 0.000000000000e+00 
1.527351812531e+01 0.000000000000e+00 
1.552653234967e+01 0.000000000000e+00 
1.556774603369e+01 0.000000000000e+00 
1.560908438945e+01 0.000000000000e+00 
1.585874295178e+01 0.000000000000e+00 
1.589995663580e+01 0.000000000000e+00 
1.594129499155e+01 0.000000000000e+00 
1.618763144826e+01 0.000000000000e+00 
1.622884513228e+01 0.000000000000e+00 
1.627018348804e+01 0.000000000000e+00 
1.651323105992e+01 0.000000000000e+00 
1.655444474394e+01 0.000000000000e+00 
1.659578309969e+01 0.000000000000e+00 
1.683557467590e+01 0.000000000000e+00 
1.687678835992e+01 0.000000000000e+00 
1.691812671568e+01 0.000000000000e+00 
1.715469485525e+01 0.000000000000e+00 
1.719590853927e+01 0.000000000000e+00 
1.723724689503e+01 0.000000000000e+00 
1.747062383337e+01 0.000000000000e+00 
1.751183751739e+01 0.000000000000e+00 
1.755317587314e+01 0.000000000000e+00 
1.778339352072e+01 0.000000000000e+00 
1.782460720474e+01 0.000000000000e+00 
1.786594556049e+01 0.000000000000e+00 
1.809303551191e+01 0.000000000000e+00 
1.813424919593e+01 0.000000000000e+00 
1.817558755168e+01 0.000000000000e+00 
1.839958108413e+01 0.000000000000e+00 
1.844079476814e+01 0.000000000000e+00 
1.848213312390e+01 0.000000000000e+00 
1.870306119833e+01 0.000000000000e+00 
1.874427488234e+01 0.000000000000e+00 
1.878561323810e+01 0.000000000000e+00 
1.900350651069e+01 0.000000000000e+00 
1.904472019471e+01 0.000000000000e+00 
1.908605855047e+01 0.000000000000e+00 
1.930094737091e+01 0.000000000000e+00 
1.934216105493e+01 0.000000000000e+00 
1.938349941068e+01 0.000000000000e+00 
1.959541382309e+01 0.000000000000e+00 
1.963662750711e+01 0.000000000000e+00 
1.967796586286e+01 0.000000000000e+00 
1.988693561187e+01 0.000000000000e+00 
1.992814929589e+01 0.000000000000e+00 
1.996948765164e+01 0.000000000000e+00 
2.017554218313e+01 0.000000000000e+00 
2.021675586714e+01 0.000000000000e+00 
2.025809422290e+01 0.000000000000e+00 
2.046126268737e+01 0.000000000000e+00 
2.050247637139e+01 0.000000000000e+00 
2.054381472714e+01 0.000000000000e+00 
2.074412598560e+01 0.000000000000e+00 
2.078533966962e+01 0.000000000000e+00 
2.082667802537e+01 0.000000000000e+00 
2.102416064987e+01 0.000000000000e+00 
2.106537433389e+01 0.000000000000e+00 
2.110671268965e+01 0.000000000000e+00 
2.130139496651e+01 0.000000000000e+00 
2.134260865053e+01 0.000000000000e+00 
2.138394700628e+01 0.000000000000e+00 
2.157585694172e+01 0.000000000000e+00 
2.161707062574e+01 0.000000000000e+00 
2.165840898150e+01 0.000000000000e+00 
2.184757429945e+01 0.000000000000e+00 
2.188878798347e+01 0.000000000000e+00 
2.193012633923e+01 0.000000000000e+00 
2.211657448437e+01 0.000000000000e+00 
2.215778816839e+01 0.000000000000e+00 
2.219912652414e+01 0.000000000000e+00 
2.238288466740e+01 0.000000000000e+00 
2.242409835142e+01 0.000000000000e+00 
2.246543670718e+01 0.000000000000e+00 
2.264653174601e+01 0.000000000000e+00 
2.268774543003e+01 0.000000000000e+00 
2.272908378578e+01 0.000000000000e+00 
2.290754235226e+01 0.000000000000e+00 
2.294875603628e+01 0.000000000000e+00 
2.299009439203e+01 0.000000000000e+00 
2.316594285285e+01 0.000000000000e+00 
2.320715653686e+01 0.000000000000e+00 
2.324849489262e+01 0.000000000000e+00 
2.342175934928e+01 0.000000000000e+00 
2.346297303330e+01 0.000000000000e+00 
2.350431138905e+01 0.000000000000e+00 
2.367501768047e+01 0.000000000000e+00 
2.371623136449e+01 0.000000000000e+00 
2.375756972025e+01 0.000000000000e+00 
2.392574342806e+01 0.000000000000e+00 
2.396695711208e+01 0.000000000000e+00 
2.400829546783e+01 0.000000000000e+00 
2.417396191883e+01 0.000000000000e+00 
2.421517560284e+01 0.000000000000e+00 
2.425651395860e+01 0.000000000000e+00 
2.441969822466e+01 0.000000000000e+00 
2.446091190868e+01 0.000000000000e+00 
2.450225026444e+01 0.000000000000e+00 
2.466297716760e+01 0.000000000000e+00 
2.470419085161e+01 0.000000000000e+00 
2.474552920737e+01 0.000000000000e+00 
2.490382332220e+01 0.000000000000e+00 
2.494503700622e+01 0.000000000000e+00 
2.498637536198e+01 0.000000000000e+00 
2.514226101529e+01 0.000000000000e+00 
2.518347469931e+01 0.000000000000e+00 
2.522481305506e+01 0.000000000000e+00 
2.537831433090e+01 0.000000000000e+00 
2.541952801492e+01 0.000000000000e+00 
2.546086637067e+01 0.000000000000e+00 
2.561200711245e+01 0.000000000000e+00 
2.565322079647e+01 0.000000000000e+00 
2.569455915222e+01 0.000000000000e+00 
2.584336296502e+01 0.000000000000e+00 
2.588457664904e+01 0.000000000000e+00 
2.592591500479e+01 0.000000000000e+00 
2.607240526004e+01 0.000000000000e+00 
2.611361894406e+01 0.000000000000e+00 
2.615495729982e+01 0.000000000000e+00 
2.629915713220e+01 0.000000000000e+00 
2.634037081622e+01 0.000000000000e+00 
2.638170917197e+01 0.000000000000e+00 
2.652364148671e+01 0.000000000000e+00 
2.656485517073e+01 0.000000000000e+00 
2.660619352649e+01 0.000000000000e+00 
2.674588099871e+01 0.000000000000e+00 
2.678709468273e+01 0.000000000000e+00 
2.682843303848e+01 0.000000000000e+00 
2.696589811523e+01 0.000000000000e+00 
2.700711179925e+01 0.000000000000e+00 
2.704845015500e+01 0.000000000000e+00 
2.718371505974e+01 0.000000000000e+00 
2.722492874375e+01 0.000000000000e+00 
2.726626709951e+01 0.000000000000e+00 
2.739935383399e+01 0.000000000000e+00 
2.744056751800e+01 0.000000000000e+00 
2.748190587376e+01 0.000000000000e+00 
2.761283621984e+01 0.000000000000e+00 
2.765404990386e+01 0.000000000000e+00 
2.769538825961e+01 0.000000000000e+00 
2.782418378107e+01 0.000000000000e+00 
2.786539746509e+01 0.000000000000e+00 
2.790673582084e+01 0.000000000000e+00 
2.803341786767e+01 0.000000000000e+00 
2.807463155169e+01 0.000000000000e+00 
2.811596990744e+01 0.000000000000e+00 
2.824055961495e+01 0.000000000000e+00 
2.828177329897e+01 0.000000000000e+00 
2.832311165472e+01 0.000000000000e+00 
2.844562994519e+01 0.000000000000e+00 
2.848684362921e+01 0.000000000000e+00 
2.852818198496e+01 0.000000000000e+00 
2.864864957188e+01 0.000000000000e+00 
2.868986325590e+01 0.000000000000e+00 
2.873120161165e+01 0.000000000000e+00 
2.884963900127e+01 0.000000000000e+00 
2.889085268529e+01 0.000000000000e+00 
2.893219104104e+01 0.000000000000e+00 
2.904861853653e+01 0.000000000000e+00 
2.908983222055e+01 0.000000000000e+00 
2.913117057631e+01 0.000000000000e+00 
2.924560827656e+01 0.000000000000e+00 
2.928682196058e+01 0.000000000000e+00 
2.932816031634e+01 0.000000000000e+00 
2.944062812009e+01 0.000000000000e+00 
2.948184180411e+01 0.000000000000e+00 
2.952318015986e+01 0.000000000000e+00 
2.963369776707e+01 0.000000000000e+00 
2.967491145109e+01 0.000000000000e+00 
2.971624980684e+01 0.000000000000e+00 
2.982483671749e+01 0.000000000000e+00 
2.986605040151e+01 0.000000000000e+00 
2.990738875726e+01 0.000000000000e+00 
3.001406427767e+01 0.000000000000e+00 
3.005527796169e+01 0.000000000000e+00 
3.009661631745e+01 0.000000000000e+00 
3.020139956192e+01 0.000000000000e+00 
3.024261324594e+01 0.000000000000e+00 
3.028395160170e+01 0.000000000000e+00 
3.038686149352e+01 0.000000000000e+00 
3.042807517754e+01 0.000000000000e+00 
3.046941353329e+01 0.000000000000e+00 
3.057046880599e+01 0.000000000000e+00 
3.061168249001e+01 0.000000000000e+00 
3.065302084576e+01 0.000000000000e+00 
3.075224004426e+01 0.000000000000e+00 
3.079345372828e+01 0.000000000000e+00 
3.083479208403e+01 0.000000000000e+00 
3.093219356845e+01 0.000000000000e+00 
3.097340725246e+01 0.000000000000e+00 
3.101474560822e+01 0.000000000000e+00 
3.111034755750e+01 0.000000000000e+00 
3.115156124152e+01 0.000000000000e+00 
3.119289959728e+01 0.000000000000e+00 
3.128672000767e+01 0.000000000000e+00 
3.132793369169e+01 0.000000000000e+00 
3.136927204744e+01 0.000000000000e+00 
3.146132873347e+01 0.000000000000e+00 
3.150254241749e+01 0.000000000000e+00 
3.154388077325e+01 0.000000000000e+00 
3.163419137139e+01 0.000000000000e+00 
3.167540505541e+01 0.000000000000e+00 
3.171674341116e+01 0.000000000000e+00 
3.180532538335e+01 0.000000000000e+00 
3.184653906737e+01 0.000000000000e+00 
3.188787742312e+01 0.000000000000e+00 
3.197474805502e+01 0.000000000000e+00 
3.201596173904e+01 0.000000000000e+00 
3.205730009479e+01 0.000000000000e+00 
3.214247649935e+01 0.000000000000e+00 
3.218369018337e+01 0.000000000000e+00 
3.222502853912e+01 0.000000000000e+00 
3.230852765997e+01 0.000000000000e+00 
3.234974134398e+01 0.000000000000e+00 
3.239107969974e+01 0.000000000000e+00 
3.247291830939e+01 0.000000000000e+00 
3.251413199341e+01 0.000000000000e+00 
3.255547034916e+01 0.000000000000e+00 
3.263566505241e+01 0.000000000000e+00 
3.267687873643e+01 0.000000000000e+00 
3.271821709219e+01 0.000000000000e+00 
3.279678432684e+01 0.000000000000e+00 
3.283799801086e+01 0.000000000000e+00 
3.287933636662e+01 0.000000000000e+00 
3.295629240946e+01 0.000000000000e+00 
3.299750609348e+01 0.000000000000e+00 
3.303884444924e+01 0.000000000000e+00 
3.311420541136e+01 0.000000000000e+00 
3.315541909537e+01 0.000000000000e+00 
3.319675745113e+01 0.000000000000e+00 
3.327053928133e+01 0.000000000000e+00 
3.331175296535e+01 0.000000000000e+00 
3.335309132110e+01 0.000000000000e+00 
3.342530981424e+01 0.000000000000e+00 
3.346652349826e+01 0.000000000000e+00 
3.350786185401e+01 0.000000000000e+00 
3.357853264371e+01 0.000000000000e+00 
3.361974632773e+01 0.000000000000e+00 
3.366108468348e+01 0.000000000000e+00 
3.373022324536e+01 0.000000000000e+00 
3.377143692937e+01 0.000000000000e+00 
3.381277528513e+01 0.000000000000e+00 
3.388039693988e+01 0.000000000000e+00 
3.392161062390e+01 0.000000000000e+00 
3.396294897965e+01 0.000000000000e+00 
3.402906889619e+01 0.000000000000e+00 
3.407028258021e+01 0.000000000000e+00 
3.411162093597e+01 0.000000000000e+00 
3.417625413181e+01 0.000000000000e+00 
3.421746781583e+01 0.000000000000e+00 
3.425880617159e+01 0.000000000000e+00 
3.432196751593e+01 0.000000000000e+00 
3.436318119995e+01 0.000000000000e+00 
3.440451955571e+01 0.000000000000e+00 
3.446622376711e+01 0.000000000000e+00 
3.450743745112e+01 0.000000000000e+00 
3.454877580688e+01 0.000000000000e+00 
3.460903745372e+01 0.000000000000e+00 
3.465025113774e+01 0.000000000000e+00 
3.469158949349e+01 0.000000000000e+00 
3.475042300475e+01 0.000000000000e+00 
3.479163668876e+01 0.000000000000e+00 
3.483297504452e+01 0.000000000000e+00 
3.489039470209e+01 0.000000000000e+00 
3.493160838611e+01 0.000000000000e+00 
3.497294674187e+01 0.000000000000e+00 
3.502896668101e+01 0.000000000000e+00 
3.507018036503e+01 0.000000000000e+00 
3.511151872078e+01 0.000000000000e+00 
3.516615294074e+01 0.000000000000e+00 
3.520736662476e+01 0.000000000000e+00 
3.524870498052e+01 0.000000000000e+00 
3.530196733944e+01 0.000000000000e+00 
3.534318102346e+01 0.000000000000e+00 
3.538451937922e+01 0.000000000000e+00 
3.543642359182e+01 0.000000000000e+00 
3.547763727584e+01 0.000000000000e+00 
3.551897563160e+01 0.000000000000e+00 
3.556953527978e+01 0.000000000000e+00 
3.561074896380e+01 0.000000000000e+00 
3.565208731956e+01 0.000000000000e+00 
3.570131585245e+01 0.000000000000e+00 
3.574252953646e+01 0.000000000000e+00 
3.578386789222e+01 0.000000000000e+00 
3.583177862104e+01 0.000000000000e+00 
3.587299230506e+01 0.000000000000e+00 
3.591433066082e+01 0.000000000000e+00 
3.596093676164e+01 0.000000000000e+00 
3.600215044566e+01 0.000000000000e+00 
3.604348880141e+01 0.000000000000e+00 
3.608880332043e+01 0.000000000000e+00 
3.613001700445e+01 0.000000000000e+00 
3.617135536020e+01 0.000000000000e+00 
3.621539121369e+01 0.000000000000e+00 
3.625660489771e+01 0.000000000000e+00 
3.629794325347e+01 0.000000000000e+00 
3.634071322783e+01 0.000000000000e+00 
3.638192691185e+01 0.000000000000e+00 
3.642326526761e+01 0.000000000000e+00 
3.646478202192e+01 0.000000000000e+00 
3.650599570594e+01 0.000000000000e+00 
3.654733406170e+01 0.000000000000e+00 
3.658761012766e+01 0.000000000000e+00 
3.662882381168e+01 0.000000000000e+00 
3.667016216744e+01 0.000000000000e+00 
3.670920995193e+01 0.000000000000e+00 
3.675042363594e+01 0.000000000000e+00 
3.679176199170e+01 0.000000000000e+00 
3.682959377923e+01 0.000000000000e+00 
3.687080746324e+01 0.000000000000e+00 
3.691214581900e+01 0.000000000000e+00 
3.694877376896e+01 0.000000000000e+00 
3.698998745298e+01 0.000000000000e+00 
3.703132580873e+01 0.000000000000e+00 
3.706676195791e+01 0.000000000000e+00 
3.710797564193e+01 0.000000000000e+00 
3.714931399768e+01 0.000000000000e+00 
3.718357026527e+01 0.000000000000e+00 
3.722478394929e+01 0.000000000000e+00 
3.726612230504e+01 0.000000000000e+00 
3.729921048980e+01 0.000000000000e+00 
3.734042417382e+01 0.000000000000e+00 
3.738176252957e+01 0.000000000000e+00 
3.741369431222e+01 0.000000000000e+00 
3.745490799624e+01 0.000000000000e+00 
3.749624635199e+01 0.000000000000e+00 
3.752703329495e+01 0.000000000000e+00 
3.756824697897e+01 0.000000000000e+00 
3.760958533473e+01 0.000000000000e+00 
3.763923888711e+01 0.000000000000e+00 
3.768045257113e+01 0.000000000000e+00 
3.772179092688e+01 0.000000000000e+00 
3.775032242409e+01 0.000000000000e+00 
3.779153610811e+01 0.000000000000e+00 
3.783287446386e+01 0.000000000000e+00 
3.786029512473e+01 0.000000000000e+00 
3.790150880875e+01 0.000000000000e+00 
3.794284716450e+01 0.000000000000e+00 
3.796916809876e+01 0.000000000000e+00 
3.801038178278e+01 0.000000000000e+00 
3.805172013854e+01 0.000000000000e+00 
3.807695234381e+01 0.000000000000e+00 
3.811816602783e+01 0.000000000000e+00 
3.815950438358e+01 0.000000000000e+00 
3.818365874501e+01 0.000000000000e+00 
3.822487242902e+01 0.000000000000e+00 
3.826621078478e+01 0.000000000000e+00 
3.828929808247e+01 0.000000000000e+00 
3.833051176649e+01 0.000000000000e+00 
3.837185012224e+01 0.000000000000e+00 
3.839388102815e+01 0.000000000000e+00 
3.843509471216e+01 0.000000000000e+00 
3.847643306792e+01 0.000000000000e+00 
3.849741814280e+01 0.000000000000e+00 
3.853863182682e+01 0.000000000000e+00 
3.857997018258e+01 0.000000000000e+00 
3.859991988605e+01 0.000000000000e+00 
3.864113357006e+01 0.000000000000e+00 
3.868247192582e+01 0.000000000000e+00 
3.870139661308e+01 0.000000000000e+00 
3.874261029710e+01 0.000000000000e+00 
3.878394865285e+01 0.000000000000e+00 
3.880185857166e+01 0.000000000000e+00 
3.884307225567e+01 0.000000000000e+00 
3.888441061143e+01 0.000000000000e+00 
3.890131591200e+01 0.000000000000e+00 
3.894252959602e+01 0.000000000000e+00 
3.898386795177e+01 0.000000000000e+00 
3.899977868090e+01 0.000000000000e+00 
3.904099236491e+01 0.000000000000e+00 
3.908233072067e+01 0.000000000000e+00 
3.909725682124e+01 0.000000000000e+00 
3.913847050526e+01 0.000000000000e+00 
3.917980886101e+01 0.000000000000e+00 
3.919376017922e+01 0.000000000000e+00 
3.923497386324e+01 0.000000000000e+00 
3.927631221900e+01 0.000000000000e+00 
3.928929850370e+01 0.000000000000e+00 
3.933051218772e+01 0.000000000000e+00 
3.937185054347e+01 0.000000000000e+00 
3.938388144552e+01 0.000000000000e+00 
3.942509512953e+01 0.000000000000e+00 
3.946643348529e+01 0.000000000000e+00 
3.947751855687e+01 0.000000000000e+00 
3.951873224089e+01 0.000000000000e+00 
3.956007059665e+01 0.000000000000e+00 
3.957021929589e+01 0.000000000000e+00 
3.961143297991e+01 0.000000000000e+00 
3.965277133567e+01 0.000000000000e+00 
3.966199302847e+01 0.000000000000e+00 
3.970320671249e+01 0.000000000000e+00 
3.974454506824e+01 0.000000000000e+00 
3.975284902494e+01 0.000000000000e+00 
3.979406270896e+01 0.000000000000e+00 
3.983540106471e+01 0.000000000000e+00 
3.984279646198e+01 0.000000000000e+00 
3.988401014600e+01 0.000000000000e+00 
3.992534850175e+01 0.000000000000e+00 
3.993184442444e+01 0.000000000000e+00 
3.997305810845e+01 0.000000000000e+00 
4.001439646421e+01 0.000000000000e+00 
4.002000190720e+01 0.000000000000e+00 
4.006121559122e+01 0.000000000000e+00 
4.010255394698e+01 0.000000000000e+00 
4.010727781436e+01 0.000000000000e+00 
4.014849149838e+01 0.000000000000e+00 
4.018982985413e+01 0.000000000000e+00 
4.019368096103e+01 0.000000000000e+00 
4.023489464505e+01 0.000000000000e+00 
4.027623300080e+01 0.000000000000e+00 
4.027922007773e+01 0.000000000000e+00 
4.032043376175e+01 0.000000000000e+00 
4.036177211751e+01 0.000000000000e+00 
4.036390380426e+01 0.000000000000e+00 
4.040511748828e+01 0.000000000000e+00 
4.044645584404e+01 0.000000000000e+00 
4.044774069152e+01 0.000000000000e+00 
4.048895437554e+01 0.000000000000e+00 
4.053029273130e+01 0.000000000000e+00 
4.053073920845e+01 0.000000000000e+00 
4.057195289247e+01 0.000000000000e+00 
4.061290774109e+01 0.000000000000e+00 
4.061329124822e+01 0.000000000000e+00 
4.065412142511e+01 0.000000000000e+00 
4.069425458903e+01 0.000000000000e+00 
4.069545978086e+01 0.000000000000e+00 
4.073546827305e+01 0.000000000000e+00 
4.077478796974e+01 0.000000000000e+00 
4.077680662880e+01 0.000000000000e+00 
4.081600165376e+01 0.000000000000e+00 
4.085451601759e+01 0.000000000000e+00 
4.085734000952e+01 0.000000000000e+00 
4.089572970161e+01 0.000000000000e+00 
4.093344678290e+01 0.000000000000e+00 
4.093706805736e+01 0.000000000000e+00 
4.097466046692e+01 0.000000000000e+00 
4.101158823881e+01 0.000000000000e+00 
4.101599882267e+01 0.000000000000e+00 
4.105280192283e+01 0.000000000000e+00 
4.108894828023e+01 0.000000000000e+00 
4.109414027858e+01 0.000000000000e+00 
4.113016196425e+01 0.000000000000e+00 
4.116553472282e+01 0.000000000000e+00 
4.117150032000e+01 0.000000000000e+00 
4.120674840683e+01 0.000000000000e+00 
4.124135530193e+01 0.000000000000e+00 
4.124808676259e+01 0.000000000000e+00 
4.128256898595e+01 0.000000000000e+00 
4.131641767425e+01 0.000000000000e+00 
4.132390734171e+01 0.000000000000e+00 
4.135763135827e+01 0.000000000000e+00 
4.139072942191e+01 0.000000000000e+00 
4.139896971403e+01 0.000000000000e+00 
4.143194310593e+01 0.000000000000e+00 
4.146429805402e+01 0.000000000000e+00 
4.147328146169e+01 0.000000000000e+00 
4.150551173804e+01 0.000000000000e+00 
4.154685009379e+01 0.000000000000e+00 
 TITLE = "Profiles along polylines"
 VARIABLES = "DIST" "HEAD" 
 ZONE T="TIME=1.797693134862e+308"
6.464298054018e+00 3.414788303624e+01 
6.505511738037e+00 3.414421636507e+01 
6.546850093792e+00 3.414051518398e+01 
6.887130998284e+00 3.414773356907e+01 
6.928344682303e+00 3.414406674852e+01 
6.969683038058e+00 3.414036541759e+01 
7.305735615424e+00 3.414758710449e+01 
7.346949299442e+00 3.414392013605e+01 
7.388287655197e+00 3.414021865678e+01 
7.720154185294e+00 3.414744358278e+01 
7.761367869312e+00 3.414377646792e+01 
7.802706225067e+00 3.414007484180e+01 
8.130428569313e+00 3.414730294517e+01 
8.171642253332e+00 3.414363568536e+01 
8.212980609087e+00 3.413993391384e+01 
8.536600210967e+00 3.414716513397e+01 
8.577813894985e+00 3.414349773065e+01 
8.619152250740e+00 3.413979581520e+01 
8.938710136389e+00 3.414703009262e+01 
8.979923820407e+00 3.414336254723e+01 
9.021262176162e+00 3.413966048926e+01 
9.336798962638e+00 3.414689776568e+01 
9.378012646656e+00 3.414323007964e+01 
9.419351002411e+00 3.413952788060e+01 
9.730906900651e+00 3.414676809886e+01 
9.772120584669e+00 3.414310027357e+01 
9.813458940424e+00 3.413939793486e+01 
1.012107375813e+01 3.414664103893e+01 
1.016228744215e+01 3.414297307578e+01 
1.020362579791e+01 3.413927059880e+01 
1.050733894499e+01 3.414651653374e+01 
1.054855262901e+01 3.414284843411e+01 
1.058989098477e+01 3.413914582024e+01 
1.088974148128e+01 3.414639453218e+01 
1.093095516530e+01 3.414272629744e+01 
1.097229352106e+01 3.413902354804e+01 
1.126831999192e+01 3.414627498416e+01 
1.130953367594e+01 3.414260661566e+01 
1.135087203170e+01 3.413890373209e+01 
1.164311271727e+01 3.414615784060e+01 
1.168432640129e+01 3.414248933967e+01 
1.172566475704e+01 3.413878632328e+01 
1.201415751541e+01 3.414604305339e+01 
1.205537119943e+01 3.414237442136e+01 
1.209670955519e+01 3.413867127347e+01 
1.238149186479e+01 3.414593057539e+01 
1.242270554880e+01 3.414226181357e+01 
1.246404390456e+01 3.413855853550e+01 
1.274515287155e+01 3.414582036039e+01 
1.278636655557e+01 3.414215147008e+01 
1.282770491132e+01 3.413844806312e+01 
1.310517726672e+01 3.414571236311e+01 
1.314639095074e+01 3.414204334560e+01 
1.318772930650e+01 3.413833981105e+01 
1.346160141884e+01 3.414560653918e+01 
1.350281510285e+01 3.414193739573e+01 
1.354415345861e+01 3.413823373486e+01 
1.381446133070e+01 3.414550284510e+01 
1.385567501471e+01 3.414183357697e+01 
1.389701337047e+01 3.413812979105e+01 
1.416379264417e+01 3.414540123825e+01 
1.420500632819e+01 3.414173184669e+01 
1.424634468394e+01 3.413802793696e+01 
1.450963064466e+01 3.414530167686e+01 
1.455084432868e+01 3.414163216310e+01 
1.459218268443e+01 3.413792813080e+01 
1.485201026309e+01 3.414520411998e+01 
1.489322394711e+01 3.414153448525e+01 
1.493456230287e+01 3.413783033161e+01 
1.519096608554e+01 3.414510852749e+01 
1.523217976956e+01 3.414143877300e+01 
1.527351812531e+01 3.413773449923e+01 
1.552653234967e+01 3.414501486008e+01 
1.556774603369e+01 3.414134498702e+01 
1.560908438945e+01 3.413764059432e+01 
1.585874295178e+01 3.414492307920e+01 
1.589995663580e+01 3.414125308875e+01 
1.594129499155e+01 3.413754857832e+01 
1.618763144826e+01 3.414483314709e+01 
1.622884513228e+01 3.414116304043e+01 
1.627018348804e+01 3.413745841344e+01 
1.651323105992e+01 3.414474502673e+01 
1.655444474394e+01 3.414107480503e+01 
1.659578309969e+01 3.413737006263e+01 
1.683557467590e+01 3.414465868185e+01 
1.687678835992e+01 3.414098834625e+01 
1.691812671568e+01 3.413728348962e+01 
1.715469485525e+01 3.414457407690e+01 
1.719590853927e+01 3.414090362854e+01 
1.723724689503e+01 3.413719865880e+01 
1.747062383337e+01 3.414449117703e+01 
1.751183751739e+01 3.414082061705e+01 
1.755317587314e+01 3.413711553534e+01 
1.778339352072e+01 3.414440994811e+01 
1.782460720474e+01 3.414073927761e+01 
1.786594556049e+01 3.413703408505e+01 
1.809303551191e+01 3.414433035666e+01 
1.813424919593e+01 3.414065957675e+01 
1.817558755168e+01 3.413695427445e+01 
1.839958108413e+01 3.414425236989e+01 
1.844079476814e+01 3.414058148166e+01 
1.848213312390e+01 3.413687607072e+01 
1.870306119833e+01 3.414417595566e+01 
1.874427488234e+01 3.414050496020e+01 
1.878561323810e+01 3.413679944170e+01 
1.900350651069e+01 3.414410108247e+01 
1.904472019471e+01 3.414042998085e+01 
1.908605855047e+01 3.413672435587e+01 
1.930094737091e+01 3.414402771945e+01 
1.934216105493e+01 3.414035651273e+01 
1.938349941068e+01 3.413665078233e+01 
1.959541382309e+01 3.414395583634e+01 
1.963662750711e+01 3.414028452558e+01 
1.967796586286e+01 3.413657869081e+01 
1.988693561187e+01 3.414388540350e+01 
1.992814929589e+01 3.414021398973e+01 
1.996948765164e+01 3.413650805164e+01 
2.017554218313e+01 3.414381639186e+01 
2.021675586714e+01 3.414014487611e+01 
2.025809422290e+01 3.413643883574e+01 
2.046126268737e+01 3.414374877295e+01 
2.050247637139e+01 3.414007715624e+01 
2.054381472714e+01 3.413637101461e+01 
2.074412598560e+01 3.414368251886e+01 
2.078533966962e+01 3.414001080221e+01 
2.082667802537e+01 3.413630456032e+01 
2.102416064987e+01 3.414361760224e+01 
2.106537433389e+01 3.413994578663e+01 
2.110671268965e+01 3.413623944550e+01 
2.130139496651e+01 3.414355399627e+01 
2.134260865053e+01 3.413988208271e+01 
2.138394700628e+01 3.413617564332e+01 
2.157585694172e+01 3.414349167470e+01 
2.161707062574e+01 3.413981966416e+01 
2.165840898150e+01 3.413611312749e+01 
2.184757429945e+01 3.414343061177e+01 
2.188878798347e+01 3.413975850522e+01 
2.193012633923e+01 3.413605187225e+01 
2.211657448437e+01 3.414337078226e+01 
2.215778816839e+01 3.413969858066e+01 
2.219912652414e+01 3.413599185235e+01 
2.238288466740e+01 3.414331216143e+01 
2.242409835142e+01 3.413963986573e+01 
2.246543670718e+01 3.413593304304e+01 
2.264653174601e+01 3.414325472505e+01 
2.268774543003e+01 3.413958233620e+01 
2.272908378578e+01 3.413587542006e+01 
2.290754235226e+01 3.414319844938e+01 
2.294875603628e+01 3.413952596830e+01 
2.299009439203e+01 3.413581895966e+01 
2.316594285285e+01 3.414314331113e+01 
2.320715653686e+01 3.413947073875e+01 
2.324849489262e+01 3.413576363852e+01 
2.342175934928e+01 3.414308928750e+01 
2.346297303330e+01 3.413941662472e+01 
2.350431138905e+01 3.413570943384e+01 
2.367501768047e+01 3.414303635614e+01 
2.371623136449e+01 3.413936360387e+01 
2.375756972025e+01 3.413565632322e+01 
2.392574342806e+01 3.414298449512e+01 
2.396695711208e+01 3.413931165426e+01 
2.400829546783e+01 3.413560428476e+01 
2.417396191883e+01 3.414293368299e+01 
2.421517560284e+01 3.413926075443e+01 
2.425651395860e+01 3.413555329695e+01 
2.441969822466e+01 3.414288389871e+01 
2.446091190868e+01 3.413921088331e+01 
2.450225026444e+01 3.413550333874e+01 
2.466297716760e+01 3.414283512165e+01 
2.470419085161e+01 3.413916202029e+01 
2.474552920737e+01 3.413545438949e+01 
2.490382332220e+01 3.414278733159e+01 
2.494503700622e+01 3.413911414514e+01 
2.498637536198e+01 3.413540642898e+01 
2.514226101529e+01 3.414274050875e+01 
2.518347469931e+01 3.413906723804e+01 
2.522481305506e+01 3.413535943738e+01 
2.537831433090e+01 3.414269463371e+01 
2.541952801492e+01 3.413902127959e+01 
2.546086637067e+01 3.413531339526e+01 
2.561200711245e+01 3.414264968744e+01 
2.565322079647e+01 3.413897625075e+01 
2.569455915222e+01 3.413526828360e+01 
2.584336296502e+01 3.414260565131e+01 
2.588457664904e+01 3.413893213287e+01 
2.592591500479e+01 3.413522408372e+01 
2.607240526004e+01 3.414256250704e+01 
2.611361894406e+01 3.413888890768e+01 
2.615495729982e+01 3.413518077735e+01 
2.629915713220e+01 3.414252023674e+01 
2.634037081622e+01 3.413884655725e+01 
2.638170917197e+01 3.413513834656e+01 
2.652364148671e+01 3.414247882286e+01 
2.656485517073e+01 3.413880506405e+01 
2.660619352649e+01 3.413509677380e+01 
2.674588099871e+01 3.414243824820e+01 
2.678709468273e+01 3.413876441086e+01 
2.682843303848e+01 3.413505604184e+01 
2.696589811523e+01 3.414239849591e+01 
2.700711179925e+01 3.413872458083e+01 
2.704845015500e+01 3.413501613383e+01 
2.718371505974e+01 3.414235954947e+01 
2.722492874375e+01 3.413868555743e+01 
2.726626709951e+01 3.413497703324e+01 
2.739935383399e+01 3.414232139271e+01 
2.744056751800e+01 3.413864732447e+01 
2.748190587376e+01 3.413493872386e+01 
2.761283621984e+01 3.414228400976e+01 
2.765404990386e+01 3.413860986609e+01 
2.769538825961e+01 3.413490118981e+01 
2.782418378107e+01 3.414224738508e+01 
2.786539746509e+01 3.413857316673e+01 
2.790673582084e+01 3.413486441555e+01 
2.803341786767e+01 3.414221150343e+01 
2.807463155169e+01 3.413853721115e+01 
2.811596990744e+01 3.413482838581e+01 
2.824055961495e+01 3.414217634988e+01 
2.828177329897e+01 3.413850198441e+01 
2.832311165472e+01 3.413479308566e+01 
2.844562994519e+01 3.414214190982e+01 
2.848684362921e+01 3.413846747189e+01 
2.852818198496e+01 3.413475850045e+01 
2.864864957188e+01 3.414210816889e+01 
2.868986325590e+01 3.413843365922e+01 
2.873120161165e+01 3.413472461583e+01 
2.884963900127e+01 3.414207511304e+01 
2.889085268529e+01 3.413840053236e+01 
2.893219104104e+01 3.413469141774e+01 
2.904861853653e+01 3.414204272852e+01 
2.908983222055e+01 3.413836807753e+01 
2.913117057631e+01 3.413465889239e+01 
2.924560827656e+01 3.414201100182e+01 
2.928682196058e+01 3.413833628123e+01 
2.932816031634e+01 3.413462702627e+01 
2.944062812009e+01 3.414197991972e+01 
2.948184180411e+01 3.413830513022e+01 