 TITLE = "Profiles along polylines"
 VARIABLES = "DIST" "HEAD" 
 ZONE T="TIME=0.000000000000e+00"
9.264844172423e+01 0.000000000000e+00 
9.307127466850e+01 0.000000000000e+00 
9.348987928564e+01 0.000000000000e+00 
9.390429785551e+01 0.000000000000e+00 
9.431457223953e+01 0.000000000000e+00 
9.472074388119e+01 0.000000000000e+00 
9.512285380661e+01 0.000000000000e+00 
9.552094263286e+01 0.000000000000e+00 
9.591505057088e+01 0.000000000000e+00 
9.630521742836e+01 0.000000000000e+00 
9.669148261522e+01 0.000000000000e+00 
9.707388515151e+01 0.000000000000e+00 
9.745246366215e+01 0.000000000000e+00 
9.782725638750e+01 0.000000000000e+00 
9.819830118565e+01 0.000000000000e+00 
9.856563553502e+01 0.000000000000e+00 
9.892929654178e+01 0.000000000000e+00 
9.928932093696e+01 0.000000000000e+00 
9.964574508907e+01 0.000000000000e+00 
9.999860500093e+01 0.000000000000e+00 
1.003479363144e+02 0.000000000000e+00 
1.006937743149e+02 0.000000000000e+00 
1.010361539333e+02 0.000000000000e+00 
1.013751097558e+02 0.000000000000e+00 
1.017106760199e+02 0.000000000000e+00 
 TITLE = "Profiles along polylines"
 VARIABLES = "DIST" "HEAD" 
 ZONE T="TIME=1.797693134862e+308"
9.264844172423e+01 3.044654337813e+01 
9.307127466850e+01 3.044589620932e+01 
9.348987928564e+01 3.044525718374e+01 
9.390429785551e+01 3.044462619125e+01 
9.431457223953e+01 3.044400312300e+01 
9.472074388119e+01 3.044338787140e+01 
9.512285380661e+01 3.044278033012e+01 
9.552094263286e+01 3.044218039409e+01 
9.591505057088e+01 3.044158795947e+01 
9.630521742836e+01 3.044100292371e+01 
9.669148261522e+01 3.044042518548e+01 
9.707388515151e+01 3.043985464470e+01 
9.745246366215e+01 3.043929120254e+01 
9.782725638750e+01 3.043873476141e+01 
9.819830118565e+01 3.043818522493e+01 
9.856563553502e+01 3.043764249800e+01 
9.892929654178e+01 3.043710648670e+01 
9.928932093696e+01 3.043657709837e+01 
9.964574508907e+01 3.043605424155e+01 
9.999860500093e+01 3.043553782599e+01 
1.003479363144e+02 3.043502776267e+01 
1.006937743149e+02 3.043452396375e+01 
1.010361539333e+02 3.043402634260e+01 
1.013751097558e+02 3.043353481376e+01 
1.017106760199e+02 3.043304929298e+01 
