 TITLE = "Profiles along polylines"
 VARIABLES = "DIST" "HEAD" 
 ZONE T="TIME=0.000000000000e+00"
9.827805358423e+01 0.000000000000e+00 
9.870088652850e+01 0.000000000000e+00 
9.911949114564e+01 0.000000000000e+00 
9.953390971551e+01 0.000000000000e+00 
9.994418409953e+01 0.000000000000e+00 
1.003503557412e+02 0.000000000000e+00 
1.007524656666e+02 0.000000000000e+00 
1.011505544929e+02 0.000000000000e+00 
1.015446624309e+02 0.000000000000e+00 
1.019348292884e+02 0.000000000000e+00 
 TITLE = "Profiles along polylines"
 VARIABLES = "DIST" "HEAD" 
 ZONE T="TIME=1.797693134862e+308"
9.827805358423e+01 3.011896279762e+01 
9.870088652850e+01 3.011825013929e+01 
9.911949114564e+01 3.011756566113e+01 
9.953390971551e+01 3.011690445056e+01 
9.994418409953e+01 3.011626358119e+01 
1.003503557412e+02 3.011564132812e+01 
1.007524656666e+02 3.011503667073e+01 
1.011505544929e+02 3.011444898186e+01 
1.015446624309e+02 3.011387783715e+01 
1.019348292884e+02 3.011332290130e+01 
