 TITLE = "Profiles along polylines"
 VARIABLES = "DIST" "HEAD" 
 ZONE T="TIME=0.000000000000e+00"
8.213922015522e+00 0.000000000000e+00 
8.260428323207e+00 0.000000000000e+00 
8.636754959788e+00 0.000000000000e+00 
8.683261267473e+00 0.000000000000e+00 
9.055359576928e+00 0.000000000000e+00 
9.101865884612e+00 0.000000000000e+00 
9.469778146798e+00 0.000000000000e+00 
9.516284454483e+00 0.000000000000e+00 
9.880052530818e+00 0.000000000000e+00 
9.926558838502e+00 0.000000000000e+00 
1.028622417247e+01 0.000000000000e+00 
1.033273048016e+01 0.000000000000e+00 
1.068833409789e+01 0.000000000000e+00 
1.073484040558e+01 0.000000000000e+00 
1.108642292414e+01 0.000000000000e+00 
1.113292923183e+01 0.000000000000e+00 
1.148053086216e+01 0.000000000000e+00 
1.152703716984e+01 0.000000000000e+00 
1.187069771964e+01 0.000000000000e+00 
1.191720402732e+01 0.000000000000e+00 
1.225696290650e+01 0.000000000000e+00 
1.230346921418e+01 0.000000000000e+00 
1.263936544279e+01 0.000000000000e+00 
1.268587175047e+01 0.000000000000e+00 
1.301794395343e+01 0.000000000000e+00 
1.306445026111e+01 0.000000000000e+00 
1.339273667877e+01 0.000000000000e+00 
1.343924298646e+01 0.000000000000e+00 
1.376378147692e+01 0.000000000000e+00 
1.381028778460e+01 0.000000000000e+00 
1.413111582629e+01 0.000000000000e+00 
1.417762213398e+01 0.000000000000e+00 
1.449477683305e+01 0.000000000000e+00 
1.454128314074e+01 0.000000000000e+00 
1.485480122823e+01 0.000000000000e+00 
1.490130753591e+01 0.000000000000e+00 
1.521122538034e+01 0.000000000000e+00 
1.525773168803e+01 0.000000000000e+00 
1.556408529220e+01 0.000000000000e+00 
1.561059159989e+01 0.000000000000e+00 
1.591341660567e+01 0.000000000000e+00 
1.595992291336e+01 0.000000000000e+00 
1.625925460617e+01 0.000000000000e+00 
1.630576091385e+01 0.000000000000e+00 
1.660163422460e+01 0.000000000000e+00 
1.664814053229e+01 0.000000000000e+00 
1.694059004705e+01 0.000000000000e+00 
1.698709635473e+01 0.000000000000e+00 
1.727615631118e+01 0.000000000000e+00 
1.732266261886e+01 0.000000000000e+00 
1.760836691329e+01 0.000000000000e+00 
1.765487322097e+01 0.000000000000e+00 
1.793725540977e+01 0.000000000000e+00 
1.798376171746e+01 0.000000000000e+00 
1.826285502142e+01 0.000000000000e+00 
1.830936132911e+01 0.000000000000e+00 
1.858519863741e+01 0.000000000000e+00 
1.863170494509e+01 0.000000000000e+00 
1.890431881676e+01 0.000000000000e+00 
1.895082512444e+01 0.000000000000e+00 
1.922024779488e+01 0.000000000000e+00 
1.926675410256e+01 0.000000000000e+00 
1.953301748223e+01 0.000000000000e+00 
1.957952378991e+01 0.000000000000e+00 
1.984265947342e+01 0.000000000000e+00 
1.988916578110e+01 0.000000000000e+00 
2.014920504563e+01 0.000000000000e+00 
2.019571135332e+01 0.000000000000e+00 
2.045268515983e+01 0.000000000000e+00 
2.049919146752e+01 0.000000000000e+00 
2.075313047220e+01 0.000000000000e+00 
2.079963677989e+01 0.000000000000e+00 
2.105057133241e+01 0.000000000000e+00 
2.109707764010e+01 0.000000000000e+00 
2.134503778460e+01 0.000000000000e+00 
2.139154409228e+01 0.000000000000e+00 
2.163655957338e+01 0.000000000000e+00 
2.168306588106e+01 0.000000000000e+00 
2.192516614463e+01 0.000000000000e+00 
2.197167245232e+01 0.000000000000e+00 
2.221088664888e+01 0.000000000000e+00 
2.225739295656e+01 0.000000000000e+00 
2.249374994711e+01 0.000000000000e+00 
2.254025625479e+01 0.000000000000e+00 
2.277378461138e+01 0.000000000000e+00 
2.282029091907e+01 0.000000000000e+00 
2.305101892802e+01 0.000000000000e+00 
2.309752523570e+01 0.000000000000e+00 
2.332548090323e+01 0.000000000000e+00 
2.337198721092e+01 0.000000000000e+00 
2.359719826096e+01 0.000000000000e+00 
2.364370456865e+01 0.000000000000e+00 
2.386619844588e+01 0.000000000000e+00 
2.391270475356e+01 0.000000000000e+00 
2.413250862891e+01 0.000000000000e+00 
2.417901493660e+01 0.000000000000e+00 
2.439615570752e+01 0.000000000000e+00 
2.444266201520e+01 0.000000000000e+00 
2.465716631377e+01 0.000000000000e+00 
2.470367262145e+01 0.000000000000e+00 
2.491556681435e+01 0.000000000000e+00 
2.496207312204e+01 0.000000000000e+00 
2.517138331079e+01 0.000000000000e+00 
2.521788961847e+01 0.000000000000e+00 
2.542464164198e+01 0.000000000000e+00 
2.547114794967e+01 0.000000000000e+00 
2.567536738957e+01 0.000000000000e+00 
2.572187369726e+01 0.000000000000e+00 
2.592358588034e+01 0.000000000000e+00 
2.597009218802e+01 0.000000000000e+00 
2.616932218617e+01 0.000000000000e+00 
2.621582849386e+01 0.000000000000e+00 
2.641260112911e+01 0.000000000000e+00 
2.645910743679e+01 0.000000000000e+00 
2.665344728371e+01 0.000000000000e+00 
2.669995359140e+01 0.000000000000e+00 
2.689188497680e+01 0.000000000000e+00 
2.693839128449e+01 0.000000000000e+00 
2.712793829241e+01 0.000000000000e+00 
2.717444460009e+01 0.000000000000e+00 
2.736163107396e+01 0.000000000000e+00 
2.740813738164e+01 0.000000000000e+00 
2.759298692653e+01 0.000000000000e+00 
2.763949323421e+01 0.000000000000e+00 
2.782202922155e+01 0.000000000000e+00 
2.786853552924e+01 0.000000000000e+00 
2.804878109371e+01 0.000000000000e+00 
2.809528740139e+01 0.000000000000e+00 
2.827326544822e+01 0.000000000000e+00 
2.831977175591e+01 0.000000000000e+00 
2.849550496022e+01 0.000000000000e+00 
2.854201126790e+01 0.000000000000e+00 
2.871552207674e+01 0.000000000000e+00 
2.876202838442e+01 0.000000000000e+00 
2.893333902124e+01 0.000000000000e+00 
2.897984532893e+01 0.000000000000e+00 
2.914897779549e+01 0.000000000000e+00 
2.919548410318e+01 0.000000000000e+00 
2.936246018135e+01 0.000000000000e+00 
2.940896648903e+01 0.000000000000e+00 
2.957380774258e+01 0.000000000000e+00 
2.962031405026e+01 0.000000000000e+00 
2.978304182918e+01 0.000000000000e+00 
2.982954813686e+01 0.000000000000e+00 
2.999018357646e+01 0.000000000000e+00 
3.003668988414e+01 0.000000000000e+00 
3.019525390670e+01 0.000000000000e+00 
3.024176021438e+01 0.000000000000e+00 
3.039827353339e+01 0.000000000000e+00 
3.044477984107e+01 0.000000000000e+00 
3.059926296278e+01 0.000000000000e+00 
3.064576927046e+01 0.000000000000e+00 
3.079824249804e+01 0.000000000000e+00 
3.084474880573e+01 0.000000000000e+00 
3.099523223807e+01 0.000000000000e+00 
3.104173854576e+01 0.000000000000e+00 
3.119025208160e+01 0.000000000000e+00 
3.123675838928e+01 0.000000000000e+00 
3.138332172858e+01 0.000000000000e+00 
3.142982803626e+01 0.000000000000e+00 
3.157446067900e+01 0.000000000000e+00 
3.162096698668e+01 0.000000000000e+00 
3.176368823918e+01 0.000000000000e+00 
3.181019454687e+01 0.000000000000e+00 
3.195102352343e+01 0.000000000000e+00 
3.199752983111e+01 0.000000000000e+00 
3.213648545503e+01 0.000000000000e+00 
3.218299176271e+01 0.000000000000e+00 
3.232009276750e+01 0.000000000000e+00 
3.236659907518e+01 0.000000000000e+00 
3.250186400577e+01 0.000000000000e+00 
3.254837031345e+01 0.000000000000e+00 
3.268181752995e+01 0.000000000000e+00 
3.272832383764e+01 0.000000000000e+00 
3.285997151901e+01 0.000000000000e+00 
3.290647782670e+01 0.000000000000e+00 
3.303634396917e+01 0.000000000000e+00 
3.308285027686e+01 0.000000000000e+00 
3.321095269498e+01 0.000000000000e+00 
3.325745900267e+01 0.000000000000e+00 
3.338381533290e+01 0.000000000000e+00 
3.343032164058e+01 0.000000000000e+00 
3.355494934486e+01 0.000000000000e+00 
3.360145565254e+01 0.000000000000e+00 
3.372437201652e+01 0.000000000000e+00 
3.377087832421e+01 0.000000000000e+00 
3.389210046085e+01 0.000000000000e+00 
3.393860676854e+01 0.000000000000e+00 
3.405815162147e+01 0.000000000000e+00 
3.410465792916e+01 0.000000000000e+00 
3.422254227089e+01 0.000000000000e+00 
3.426904857858e+01 0.000000000000e+00 
3.438528901392e+01 0.000000000000e+00 
3.443179532160e+01 0.000000000000e+00 
3.454640828835e+01 0.000000000000e+00 
3.459291459604e+01 0.000000000000e+00 
3.470591637097e+01 0.000000000000e+00 
3.475242267865e+01 0.000000000000e+00 
3.486382937286e+01 0.000000000000e+00 
3.491033568055e+01 0.000000000000e+00 
3.502016324284e+01 0.000000000000e+00 
3.506666955052e+01 0.000000000000e+00 
3.517493377574e+01 0.000000000000e+00 
3.522144008343e+01 0.000000000000e+00 
3.532815660522e+01 0.000000000000e+00 
3.537466291290e+01 0.000000000000e+00 
3.547984720686e+01 0.000000000000e+00 
3.552635351455e+01 0.000000000000e+00 
3.563002090139e+01 0.000000000000e+00 
3.567652720907e+01 0.000000000000e+00 
3.577869285770e+01 0.000000000000e+00 
3.582519916539e+01 0.000000000000e+00 
3.592587809332e+01 0.000000000000e+00 
3.597238440101e+01 0.000000000000e+00 
3.607159147744e+01 0.000000000000e+00 
3.611809778512e+01 0.000000000000e+00 
3.621584772861e+01 0.000000000000e+00 
3.626235403630e+01 0.000000000000e+00 
3.635866141523e+01 0.000000000000e+00 
3.640516772291e+01 0.000000000000e+00 
3.650004696625e+01 0.000000000000e+00 
3.654655327394e+01 0.000000000000e+00 
3.664001866360e+01 0.000000000000e+00 
3.668652497128e+01 0.000000000000e+00 
3.677859064252e+01 0.000000000000e+00 
3.682509695020e+01 0.000000000000e+00 
3.691577690225e+01 0.000000000000e+00 
3.696228320993e+01 0.000000000000e+00 
3.705159130095e+01 0.000000000000e+00 
3.709809760863e+01 0.000000000000e+00 
3.718604755333e+01 0.000000000000e+00 
3.723255386101e+01 0.000000000000e+00 
3.731915924129e+01 0.000000000000e+00 
3.736566554897e+01 0.000000000000e+00 
3.745093981395e+01 0.000000000000e+00 
3.749744612164e+01 0.000000000000e+00 
3.758140258255e+01 0.000000000000e+00 
3.762790889023e+01 0.000000000000e+00 
3.771056072315e+01 0.000000000000e+00 
3.775706703083e+01 0.000000000000e+00 
3.783842728194e+01 0.000000000000e+00 
3.788493358962e+01 0.000000000000e+00 
3.796501517520e+01 0.000000000000e+00 
3.801152148288e+01 0.000000000000e+00 
3.809033718934e+01 0.000000000000e+00 
3.813684349702e+01 0.000000000000e+00 
3.821440598343e+01 0.000000000000e+00 
3.826091229111e+01 0.000000000000e+00 
3.833723408917e+01 0.000000000000e+00 
3.838374039685e+01 0.000000000000e+00 
3.845883391343e+01 0.000000000000e+00 
3.850534022112e+01 0.000000000000e+00 
3.857921774073e+01 0.000000000000e+00 
3.862572404842e+01 0.000000000000e+00 
3.869839773046e+01 0.000000000000e+00 
3.874490403815e+01 0.000000000000e+00 
3.881638591941e+01 0.000000000000e+00 
3.886289222710e+01 0.000000000000e+00 
3.893319422678e+01 0.000000000000e+00 
3.897970053446e+01 0.000000000000e+00 
3.904883445130e+01 0.000000000000e+00 
3.909534075899e+01 0.000000000000e+00 
3.916331827373e+01 0.000000000000e+00 
3.920982458141e+01 0.000000000000e+00 
3.927665725646e+01 0.000000000000e+00 
3.932316356414e+01 0.000000000000e+00 
3.938886284861e+01 0.000000000000e+00 
3.943536915630e+01 0.000000000000e+00 
3.949994638559e+01 0.000000000000e+00 
3.954645269328e+01 0.000000000000e+00 
3.960991908623e+01 0.000000000000e+00 
3.965642539392e+01 0.000000000000e+00 
3.971879206027e+01 0.000000000000e+00 
3.976529836795e+01 0.000000000000e+00 
3.982657630531e+01 0.000000000000e+00 
3.987308261300e+01 0.000000000000e+00 
3.993328270651e+01 0.000000000000e+00 
3.997978901419e+01 0.000000000000e+00 
4.003892204397e+01 0.000000000000e+00 
4.008542835166e+01 0.000000000000e+00 
4.014350498965e+01 0.000000000000e+00 
4.019001129734e+01 0.000000000000e+00 
4.024704210431e+01 0.000000000000e+00 
4.029354841199e+01 0.000000000000e+00 
4.034954384755e+01 0.000000000000e+00 
4.039605015524e+01 0.000000000000e+00 
4.045102057458e+01 0.000000000000e+00 
4.049752688227e+01 0.000000000000e+00 
4.055148253316e+01 0.000000000000e+00 
4.059798884084e+01 0.000000000000e+00 
4.065093987350e+01 0.000000000000e+00 
4.069744618119e+01 0.000000000000e+00 
4.074940264240e+01 0.000000000000e+00 
4.079590895008e+01 0.000000000000e+00 
4.084688078274e+01 0.000000000000e+00 
4.089338709043e+01 0.000000000000e+00 
4.094338414073e+01 0.000000000000e+00 
4.098989044841e+01 0.000000000000e+00 
4.103892246520e+01 0.000000000000e+00 
4.108542877289e+01 0.000000000000e+00 
4.113350540702e+01 0.000000000000e+00 
4.118001171471e+01 0.000000000000e+00 
4.122714251838e+01 0.000000000000e+00 
4.127364882606e+01 0.000000000000e+00 
4.131984325740e+01 0.000000000000e+00 
4.136634956508e+01 0.000000000000e+00 
4.141161698998e+01 0.000000000000e+00 
4.145812329766e+01 0.000000000000e+00 
4.150247298644e+01 0.000000000000e+00 
4.154897929413e+01 0.000000000000e+00 
4.159242042348e+01 0.000000000000e+00 
4.163892673117e+01 0.000000000000e+00 
4.168146838594e+01 0.000000000000e+00 
4.172797469363e+01 0.000000000000e+00 
4.176962586871e+01 0.000000000000e+00 
4.181613217639e+01 0.000000000000e+00 
4.185690177586e+01 0.000000000000e+00 
4.190340808355e+01 0.000000000000e+00 
4.194330492254e+01 0.000000000000e+00 
4.198981123022e+01 0.000000000000e+00 
4.202884403924e+01 0.000000000000e+00 
4.207535034692e+01 0.000000000000e+00 
4.211352776577e+01 0.000000000000e+00 
4.216003407345e+01 0.000000000000e+00 
4.219736465303e+01 0.000000000000e+00 
4.224387096071e+01 0.000000000000e+00 
4.228036316996e+01 0.000000000000e+00 
4.232686947764e+01 0.000000000000e+00 
4.236253170259e+01 0.000000000000e+00 
4.240903801028e+01 0.000000000000e+00 
4.244387855053e+01 0.000000000000e+00 
4.249038485822e+01 0.000000000000e+00 
4.252441193125e+01 0.000000000000e+00 
4.257091823893e+01 0.000000000000e+00 
4.260413997909e+01 0.000000000000e+00 
4.265064628678e+01 0.000000000000e+00 
4.268307074440e+01 0.000000000000e+00 
4.272957705209e+01 0.000000000000e+00 
4.276121220031e+01 0.000000000000e+00 
4.280771850800e+01 0.000000000000e+00 
4.283857224173e+01 0.000000000000e+00 
4.288507854942e+01 0.000000000000e+00 
4.291515868432e+01 0.000000000000e+00 
4.296166499200e+01 0.000000000000e+00 
4.299097926344e+01 0.000000000000e+00 
4.303748557112e+01 0.000000000000e+00 
4.306604163576e+01 0.000000000000e+00 
4.311254794344e+01 0.000000000000e+00 
4.314035338342e+01 0.000000000000e+00 
4.318685969110e+01 0.000000000000e+00 
4.321392201552e+01 0.000000000000e+00 
4.326042832321e+01 0.000000000000e+00 
 TITLE = "Profiles along polylines"
 VARIABLES = "DIST" "HEAD" 
 ZONE T="TIME=1.797693134862e+308"
8.213922015522e+00 3.397171190517e+01 
8.260428323207e+00 3.396645604461e+01 
8.636754959788e+00 3.397155609608e+01 
8.683261267473e+00 3.396630006697e+01 
9.055359576928e+00 3.397140335164e+01 
9.101865884612e+00 3.396614715542e+01 
9.469778146798e+00 3.397125361141e+01 
9.516284454483e+00 3.396599724948e+01 
9.880052530818e+00 3.397110681600e+01 
9.926558838502e+00 3.396585028978e+01 
1.028622417247e+01 3.397096290718e+01 
1.033273048016e+01 3.396570621806e+01 
1.068833409789e+01 3.397082182783e+01 
1.073484040558e+01 3.396556497720e+01 
1.108642292414e+01 3.397068352198e+01 
1.113292923183e+01 3.396542651122e+01 
1.148053086216e+01 3.397054793477e+01 
1.152703716984e+01 3.396529076526e+01 
1.187069771964e+01 3.397041501244e+01 
1.191720402732e+01 3.396515768553e+01 
1.225696290650e+01 3.397028470229e+01 
1.230346921418e+01 3.396502721935e+01 
1.263936544279e+01 3.397015695267e+01 
1.268587175047e+01 3.396489931506e+01 
1.301794395343e+01 3.397003171297e+01 
1.306445026111e+01 3.396477392202e+01 
1.339273667877e+01 3.396990893356e+01 
1.343924298646e+01 3.396465099062e+01 
1.376378147692e+01 3.396978856584e+01 
1.381028778460e+01 3.396453047223e+01 
1.413111582629e+01 3.396967056212e+01 
1.417762213398e+01 3.396441231917e+01 
1.449477683305e+01 3.396955487569e+01 
1.454128314074e+01 3.396429648473e+01 
1.485480122823e+01 3.396944146078e+01 
1.490130753591e+01 3.396418292310e+01 
1.521122538034e+01 3.396933027248e+01 
1.525773168803e+01 3.396407158940e+01 
1.556408529220e+01 3.396922126682e+01 
1.561059159989e+01 3.396396243962e+01 
1.591341660567e+01 3.396911440068e+01 
1.595992291336e+01 3.396385543066e+01 
1.625925460617e+01 3.396900963180e+01 
1.630576091385e+01 3.396375052024e+01 
1.660163422460e+01 3.396890691874e+01 
1.664814053229e+01 3.396364766692e+01 
1.694059004705e+01 3.396880622091e+01 
1.698709635473e+01 3.396354683010e+01 
1.727615631118e+01 3.396870749852e+01 
1.732266261886e+01 3.396344796998e+01 
1.760836691329e+01 3.396861071255e+01 
1.765487322097e+01 3.396335104754e+01 
1.793725540977e+01 3.396851582477e+01 
1.798376171746e+01 3.396325602454e+01 
1.826285502142e+01 3.396842279769e+01 
1.830936132911e+01 3.396316286349e+01 
1.858519863741e+01 3.396833159460e+01 
1.863170494509e+01 3.396307152765e+01 
1.890431881676e+01 3.396824217947e+01 
1.895082512444e+01 3.396298198101e+01 
1.922024779488e+01 3.396815451703e+01 
1.926675410256e+01 3.396289418827e+01 
1.953301748223e+01 3.396806857266e+01 
1.957952378991e+01 3.396280811483e+01 
1.984265947342e+01 3.396798431248e+01 
1.988916578110e+01 3.396272372678e+01 
2.014920504563e+01 3.396790170323e+01 
2.019571135332e+01 3.396264099086e+01 
2.045268515983e+01 3.396782071235e+01 
2.049919146752e+01 3.396255987451e+01 
2.075313047220e+01 3.396774130789e+01 
2.079963677989e+01 3.396248034577e+01 
2.105057133241e+01 3.396766345857e+01 
2.109707764010e+01 3.396240237333e+01 
2.134503778460e+01 3.396758713370e+01 
2.139154409228e+01 3.396232592652e+01 
2.163655957338e+01 3.396751230320e+01 
2.168306588106e+01 3.396225097525e+01 
2.192516614463e+01 3.396743893761e+01 
2.197167245232e+01 3.396217749004e+01 
2.221088664888e+01 3.396736700802e+01 
2.225739295656e+01 3.396210544198e+01 
2.249374994711e+01 3.396729648612e+01 
2.254025625479e+01 3.396203480276e+01 
2.277378461138e+01 3.396722734415e+01 
2.282029091907e+01 3.396196554459e+01 
2.305101892802e+01 3.396715955489e+01 
2.309752523570e+01 3.396189764026e+01 
2.332548090323e+01 3.396709309168e+01 
2.337198721092e+01 3.396183106310e+01 
2.359719826096e+01 3.396702792836e+01 
2.364370456865e+01 3.396176578694e+01 
2.386619844588e+01 3.396696403932e+01 
2.391270475356e+01 3.396170178616e+01 
2.413250862891e+01 3.396690139943e+01 
2.417901493660e+01 3.396163903563e+01 
2.439615570752e+01 3.396683998408e+01 
2.444266201520e+01 3.396157751071e+01 
2.465716631377e+01 3.396677976912e+01 
2.470367262145e+01 3.396151718727e+01 
2.491556681435e+01 3.396672073090e+01 
2.496207312204e+01 3.396145804164e+01 
2.517138331079e+01 3.396666284623e+01 
2.521788961847e+01 3.396140005063e+01 
2.542464164198e+01 3.396660609238e+01 
2.547114794967e+01 3.396134319148e+01 
2.567536738957e+01 3.396655044707e+01 
2.572187369726e+01 3.396128744192e+01 
2.592358588034e+01 3.396649588846e+01 
2.597009218802e+01 3.396123278010e+01 
2.616932218617e+01 3.396644239515e+01 
2.621582849386e+01 3.396117918460e+01 
2.641260112911e+01 3.396638994614e+01 
2.645910743679e+01 3.396112663443e+01 
2.665344728371e+01 3.396633852087e+01 
2.669995359140e+01 3.396107510901e+01 
2.689188497680e+01 3.396628809918e+01 
2.693839128449e+01 3.396102458818e+01 
2.712793829241e+01 3.396623866130e+01 
2.717444460009e+01 3.396097505215e+01 
2.736163107396e+01 3.396619018786e+01 
2.740813738164e+01 3.396092648156e+01 
2.759298692653e+01 3.396614265988e+01 
2.763949323421e+01 3.396087885739e+01 
2.782202922155e+01 3.396609605874e+01 
2.786853552924e+01 3.396083216104e+01 
2.804878109371e+01 3.396605036619e+01 
2.809528740139e+01 3.396078637425e+01 
2.827326544822e+01 3.396600556435e+01 
2.831977175591e+01 3.396074147911e+01 
2.849550496022e+01 3.396596163568e+01 
2.854201126790e+01 3.396069745811e+01 
2.871552207674e+01 3.396591856301e+01 
2.876202838442e+01 3.396065429403e+01 
2.893333902124e+01 3.396587632949e+01 
2.897984532893e+01 3.396061197003e+01 
2.914897779549e+01 3.396583491861e+01 
2.919548410318e+01 3.396057046960e+01 
2.936246018135e+01 3.396579431418e+01 
2.940896648903e+01 3.396052977653e+01 
2.957380774258e+01 3.396575450034e+01 
2.962031405026e+01 3.396048987495e+01 
2.978304182918e+01 3.396571546153e+01 
2.982954813686e+01 3.396045074930e+01 
2.999018357646e+01 3.396567718252e+01 
3.003668988414e+01 3.396041238434e+01 
3.019525390670e+01 3.396563964835e+01 
3.024176021438e+01 3.396037476511e+01 
3.039827353339e+01 3.396560284438e+01 
3.044477984107e+01 3.396033787695e+01 
3.059926296278e+01 3.396556675626e+01 
3.064576927046e+01 3.396030170550e+01 
3.079824249804e+01 3.396553136991e+01 
3.084474880573e+01 3.396026623667e+01 
3.099523223807e+01 3.396549667154e+01 
3.104173854576e+01 3.396023145667e+01 
3.119025208160e+01 3.396546264761e+01 
3.123675838928e+01 3.396019735196e+01 
3.138332172858e+01 3.396542928488e+01 
3.142982803626e+01 3.396016390928e+01 
3.157446067900e+01 3.396539657035e+01 
3.162096698668e+01 3.396013111562e+01 
3.176368823918e+01 3.396536449129e+01 
3.181019454687e+01 3.396009895825e+01 
3.195102352343e+01 3.396533303520e+01 
3.199752983111e+01 3.396006742466e+01 
3.213648545503e+01 3.396530218985e+01 
3.218299176271e+01 3.396003650261e+01 
3.232009276750e+01 3.396527194324e+01 
3.236659907518e+01 3.396000618010e+01 
3.250186400577e+01 3.396524228362e+01 
3.254837031345e+01 3.395997644536e+01 
3.268181752995e+01 3.396521319945e+01 
3.272832383764e+01 3.395994728684e+01 
3.285997151901e+01 3.396518467943e+01 
3.290647782670e+01 3.395991869326e+01 
3.303634396917e+01 3.396515671249e+01 
3.308285027686e+01 3.395989065351e+01 
3.321095269498e+01 3.396512928777e+01 
3.325745900267e+01 3.395986315674e+01 
3.338381533290e+01 3.396510239463e+01 
3.343032164058e+01 3.395983619229e+01 
3.355494934486e+01 3.396507602263e+01 
3.360145565254e+01 3.395980974972e+01 
3.372437201652e+01 3.396505016154e+01 
3.377087832421e+01 3.395978381880e+01 
3.389210046085e+01 3.396502480134e+01 
3.393860676854e+01 3.395975838950e+01 
3.405815162147e+01 3.396499993221e+01 
3.410465792916e+01 3.395973345198e+01 
3.422254227089e+01 3.396497554450e+01 
3.426904857858e+01 3.395970899660e+01 
3.438528901392e+01 3.396495162878e+01 
3.443179532160e+01 3.395968501390e+01 
3.454640828835e+01 3.396492817579e+01 
3.459291459604e+01 3.395966149464e+01 
3.470591637097e+01 3.396490517645e+01 
3.475242267865e+01 3.395963842971e+01 
3.486382937286e+01 3.396488262187e+01 
3.491033568055e+01 3.395961581023e+01 
3.502016324284e+01 3.396486050334e+01 
3.506666955052e+01 3.395959362747e+01 
3.517493377574e+01 3.396483881230e+01 
3.522144008343e+01 3.395957187287e+01 
3.532815660522e+01 3.396481754037e+01 
3.537466291290e+01 3.395955053805e+01 
3.547984720686e+01 3.396479667934e+01 
3.552635351455e+01 3.395952961478e+01 
3.563002090139e+01 3.396477622117e+01 
3.567652720907e+01 3.395950909502e+01 
3.577869285770e+01 3.396475615796e+01 
3.582519916539e+01 3.395948897085e+01 
3.592587809332e+01 3.396473648196e+01 
3.597238440101e+01 3.395946923455e+01 
3.607159147744e+01 3.396471718561e+01 
3.611809778512e+01 3.395944987851e+01 
3.621584772861e+01 3.396469826146e+01 
3.626235403630e+01 3.395943089530e+01 
3.635866141523e+01 3.396467970223e+01 
3.640516772291e+01 3.395941227762e+01 
3.650004696625e+01 3.396466150077e+01 
3.654655327394e+01 3.395939401832e+01 
3.664001866360e+01 3.396464365009e+01 
3.668652497128e+01 3.395937611040e+01 
3.677859064252e+01 3.396462614331e+01 
3.682509695020e+01 3.395935854698e+01 
3.691577690225e+01 3.396460897370e+01 
3.696228320993e+01 3.395934132133e+01 
3.705159130095e+01 3.396459213468e+01 
3.709809760863e+01 3.395932442684e+01 
3.718604755333e+01 3.396457561977e+01 
3.723255386101e+01 3.395930785705e+01 
3.731915924129e+01 3.396455942264e+01 
3.736566554897e+01 3.395929160560e+01 
3.745093981395e+01 3.396454353706e+01 
3.749744612164e+01 3.395927566628e+01 
3.758140258255e+01 3.396452795696e+01 
3.762790889023e+01 3.395926003299e+01 
3.771056072315e+01 3.396451267635e+01 
3.775706703083e+01 3.395924469975e+01 
3.783842728194e+01 3.396449768939e+01 
3.788493358962e+01 3.395922966070e+01 
3.796501517520e+01 3.396448299033e+01 
3.801152148288e+01 3.395921491010e+01 
3.809033718934e+01 3.396446857356e+01 
3.813684349702e+01 3.395920044232e+01 
3.821440598343e+01 3.396445443355e+01 
3.826091229111e+01 3.395918625184e+01 
3.833723408917e+01 3.396444056490e+01 
3.838374039685e+01 3.395917233325e+01 
3.845883391343e+01 3.396442696232e+01 
3.850534022112e+01 3.395915868124e+01 
3.857921774073e+01 3.396441362060e+01 
3.862572404842e+01 3.395914529060e+01 
3.869839773046e+01 3.396440053466e+01 
3.874490403815e+01 3.395913215626e+01 
3.881638591941e+01 3.396438769950e+01 
3.886289222710e+01 3.395911927320e+01 
3.893319422678e+01 3.396437511023e+01 
3.897970053446e+01 3.395910663653e+01 
3.904883445130e+01 3.396436276205e+01 
3.909534075899e+01 3.395909424144e+01 
3.916331827373e+01 3.396435065025e+01 
3.920982458141e+01 3.395908208323e+01 
3.927665725646e+01 3.396433877024e+01 
3.932316356414e+01 3.395907015728e+01 
3.938886284861e+01 3.396432711749e+01 
3.943536915630e+01 3.395905845907e+01 
3.949994638559e+01 3.396431568756e+01 
3.954645269328e+01 3.395904698416e+01 
3.960991908623e+01 3.396430447612e+01 
3.965642539392e+01 3.395903572820e+01 
3.971879206027e+01 3.396429347891e+01 
3.976529836795e+01 3.395902468693e+01 
3.982657630531e+01 3.396428269175e+01 
3.987308261300e+01 3.395901385617e+01 
3.993328270651e+01 3.396427211056e+01 
3.997978901419e+01 3.395900323183e+01 
4.003892204397e+01 3.396426173131e+01 
4.008542835166e+01 3.395899280989e+01 
4.014350498965e+01 3.396425155008e+01 
4.019001129734e+01 3.395898258641e+01 
4.024704210431e+01 3.396424156302e+01 
4.029354841199e+01 3.395897255753e+01 
4.034954384755e+01 3.396423176634e+01 
4.039605015524e+01 3.395896271947e+01 
4.045102057458e+01 3.396422215634e+01 
4.049752688227e+01 3.395895306852e+01 
4.055148253316e+01 3.396421272938e+01 
4.059798884084e+01 3.395894360104e+01 
4.065093987350e+01 3.396420348192e+01 
4.069744618119e+01 3.395893431346e+01 
4.074940264240e+01 3.396419441045e+01 
4.079590895008e+01 3.395892520230e+01 
4.084688078274e+01 3.396418551155e+01 
4.089338709043e+01 3.395891626413e+01 
4.094338414073e+01 3.396417678188e+01 
4.098989044841e+01 3.395890749558e+01 
4.103892246520e+01 3.396416821813e+01 
4.108542877289e+01 3.395889889337e+01 
4.113350540702e+01 3.396415981709e+01 
4.118001171471e+01 3.395889045426e+01 
4.122714251838e+01 3.396415157560e+01 
4.127364882606e+01 3.395888217510e+01 
4.131984325740e+01 3.396414349056e+01 
4.136634956508e+01 3.395887405277e+01 
4.141161698998e+01 3.396413555893e+01 
4.145812329766e+01 3.395886608424e+01 
4.150247298644e+01 3.396412777773e+01 
4.154897929413e+01 3.395885826653e+01 
4.159242042348e+01 3.396412014405e+01 
4.163892673117e+01 3.395885059670e+01 
4.168146838594e+01 3.396411265502e+01 
4.172797469363e+01 3.395884307190e+01 
4.176962586871e+01 3.396410530783e+01 
4.181613217639e+01 3.395883568932e+01 
4.185690177586e+01 3.396409809974e+01 
4.190340808355e+01 3.395882844620e+01 
4.194330492254e+01 3.396409102804e+01 
4.198981123022e+01 3.395882133983e+01 
4.202884403924e+01 3.396408409010e+01 
4.207535034692e+01 3.395881436758e+01 
4.211352776577e+01 3.396407728332e+01 
4.216003407345e+01 3.395880752685e+01 
4.219736465303e+01 3.396407060517e+01 
4.224387096071e+01 3.395880081509e+01 
4.228036316996e+01 3.396406405314e+01 
4.232686947764e+01 3.395879422981e+01 
4.236253170259e+01 3.396405762480e+01 
4.240903801028e+01 3.395878776855e+01 
4.244387855053e+01 3.396405131776e+01 
4.249038485822e+01 3.395878142893e+01 
4.252441193125e+01 3.396404512966e+01 
4.257091823893e+01 3.395877520859e+01 
4.260413997909e+01 3.396403905820e+01 
4.265064628678e+01 3.395876910523e+01 
4.268307074440e+01 3.396403310114e+01 
4.272957705209e+01 3.395876311659e+01 
4.276121220031e+01 3.396402725625e+01 
4.280771850800e+01 3.395875724045e+01 
4.283857224173e+01 3.396402152137e+01 
4.288507854942e+01 3.395875147464e+01 
4.291515868432e+01 3.396401589437e+01 
4.296166499200e+01 3.395874581703e+01 
4.299097926344e+01 3.396401037317e+01 
4.303748557112e+01 3.395874026554e+01 
4.306604163576e+01 3.396400495572e+01 
4.311254794344e+01 3.395873481811e+01 
4.314035338342e+01 3.396399964002e+01 
4.318685969110e+01 3.395872947273e+01 
4.321392201552e+01 3.396399442416e+01 
4.326042832321e+01 3.395872422750e+01 
