 TITLE = "Profiles along polylines"
 VARIABLES = "DIST" "HEAD" 
 ZONE T="TIME=0.000000000000e+00"
1.198268834115e+01 0.000000000000e+00 
1.209240150314e+01 0.000000000000e+00 
1.240552128541e+01 0.000000000000e+00 
1.251523444741e+01 0.000000000000e+00 
1.282412590255e+01 0.000000000000e+00 
1.293383906455e+01 0.000000000000e+00 
1.323854447242e+01 0.000000000000e+00 
1.334825763442e+01 0.000000000000e+00 
1.364881885644e+01 0.000000000000e+00 
1.375853201844e+01 0.000000000000e+00 
1.405499049810e+01 0.000000000000e+00 
1.416470366009e+01 0.000000000000e+00 
1.445710042352e+01 0.000000000000e+00 
1.456681358551e+01 0.000000000000e+00 
1.485518924977e+01 0.000000000000e+00 
1.496490241176e+01 0.000000000000e+00 
1.524929718778e+01 0.000000000000e+00 
1.535901034978e+01 0.000000000000e+00 
1.563946404526e+01 0.000000000000e+00 
1.574917720726e+01 0.000000000000e+00 
1.602572923212e+01 0.000000000000e+00 
1.613544239412e+01 0.000000000000e+00 
1.640813176842e+01 0.000000000000e+00 
1.651784493041e+01 0.000000000000e+00 
1.678671027905e+01 0.000000000000e+00 
1.689642344105e+01 0.000000000000e+00 
1.716150300440e+01 0.000000000000e+00 
1.727121616640e+01 0.000000000000e+00 
1.753254780255e+01 0.000000000000e+00 
1.764226096454e+01 0.000000000000e+00 
1.789988215192e+01 0.000000000000e+00 
1.800959531391e+01 0.000000000000e+00 
1.826354315868e+01 0.000000000000e+00 
1.837325632068e+01 0.000000000000e+00 
1.862356755386e+01 0.000000000000e+00 
1.873328071585e+01 0.000000000000e+00 
1.897999170597e+01 0.000000000000e+00 
1.908970486797e+01 0.000000000000e+00 
1.933285161783e+01 0.000000000000e+00 
1.944256477983e+01 0.000000000000e+00 
1.968218293130e+01 0.000000000000e+00 
1.979189609330e+01 0.000000000000e+00 
2.002802093179e+01 0.000000000000e+00 
2.013773409379e+01 0.000000000000e+00 
2.037040055023e+01 0.000000000000e+00 
2.048011371223e+01 0.000000000000e+00 
2.070935637268e+01 0.000000000000e+00 
2.081906953467e+01 0.000000000000e+00 
2.104492263681e+01 0.000000000000e+00 
2.115463579880e+01 0.000000000000e+00 
2.137713323892e+01 0.000000000000e+00 
2.148684640091e+01 0.000000000000e+00 
2.170602173540e+01 0.000000000000e+00 
2.181573489740e+01 0.000000000000e+00 
2.203162134705e+01 0.000000000000e+00 
2.214133450905e+01 0.000000000000e+00 
2.235396496304e+01 0.000000000000e+00 
2.246367812504e+01 0.000000000000e+00 
2.267308514239e+01 0.000000000000e+00 
2.278279830438e+01 0.000000000000e+00 
2.298901412051e+01 0.000000000000e+00 
2.309872728250e+01 0.000000000000e+00 
2.330178380786e+01 0.000000000000e+00 
2.341149696985e+01 0.000000000000e+00 
2.361142579905e+01 0.000000000000e+00 
2.372113896104e+01 0.000000000000e+00 
2.391797137126e+01 0.000000000000e+00 
2.402768453326e+01 0.000000000000e+00 
2.422145148546e+01 0.000000000000e+00 
2.433116464746e+01 0.000000000000e+00 
2.452189679783e+01 0.000000000000e+00 
2.463160995983e+01 0.000000000000e+00 
2.481933765805e+01 0.000000000000e+00 
2.492905082004e+01 0.000000000000e+00 
2.511380411023e+01 0.000000000000e+00 
2.522351727223e+01 0.000000000000e+00 
2.540532589901e+01 0.000000000000e+00 
2.551503906100e+01 0.000000000000e+00 
2.569393247027e+01 0.000000000000e+00 
2.580364563226e+01 0.000000000000e+00 
2.597965297451e+01 0.000000000000e+00 
2.608936613650e+01 0.000000000000e+00 
2.626251627274e+01 0.000000000000e+00 
2.637222943473e+01 0.000000000000e+00 
2.654255093702e+01 0.000000000000e+00 
2.665226409901e+01 0.000000000000e+00 
2.681978525365e+01 0.000000000000e+00 
2.692949841564e+01 0.000000000000e+00 
2.709424722887e+01 0.000000000000e+00 
2.720396039086e+01 0.000000000000e+00 
2.736596458660e+01 0.000000000000e+00 
2.747567774859e+01 0.000000000000e+00 
2.763496477151e+01 0.000000000000e+00 
2.774467793351e+01 0.000000000000e+00 
2.790127495454e+01 0.000000000000e+00 
2.801098811654e+01 0.000000000000e+00 
2.816492203315e+01 0.000000000000e+00 
2.827463519515e+01 0.000000000000e+00 
2.842593263940e+01 0.000000000000e+00 
2.853564580140e+01 0.000000000000e+00 
2.868433313999e+01 0.000000000000e+00 
2.879404630198e+01 0.000000000000e+00 
2.894014963642e+01 0.000000000000e+00 
2.904986279842e+01 0.000000000000e+00 
2.919340796762e+01 0.000000000000e+00 
2.930312112961e+01 0.000000000000e+00 
2.944413371520e+01 0.000000000000e+00 
2.955384687720e+01 0.000000000000e+00 
2.969235220597e+01 0.000000000000e+00 
2.980206536797e+01 0.000000000000e+00 
2.993808851181e+01 0.000000000000e+00 
3.004780167380e+01 0.000000000000e+00 
3.018136745474e+01 0.000000000000e+00 
3.029108061673e+01 0.000000000000e+00 
3.042221360934e+01 0.000000000000e+00 
3.053192677134e+01 0.000000000000e+00 
3.066065130243e+01 0.000000000000e+00 
3.077036446443e+01 0.000000000000e+00 
3.089670461804e+01 0.000000000000e+00 
3.100641778004e+01 0.000000000000e+00 
3.113039739959e+01 0.000000000000e+00 
3.124011056158e+01 0.000000000000e+00 
3.136175325216e+01 0.000000000000e+00 
3.147146641416e+01 0.000000000000e+00 
3.159079554718e+01 0.000000000000e+00 
3.170050870918e+01 0.000000000000e+00 
3.181754741934e+01 0.000000000000e+00 
3.192726058133e+01 0.000000000000e+00 
3.204203177385e+01 0.000000000000e+00 
3.215174493585e+01 0.000000000000e+00 
3.226427128585e+01 0.000000000000e+00 
3.237398444784e+01 0.000000000000e+00 
3.248428840237e+01 0.000000000000e+00 
3.259400156437e+01 0.000000000000e+00 
3.270210534687e+01 0.000000000000e+00 
3.281181850887e+01 0.000000000000e+00 
3.291774412112e+01 0.000000000000e+00 
3.302745728312e+01 0.000000000000e+00 
3.313122650698e+01 0.000000000000e+00 
3.324093966898e+01 0.000000000000e+00 
3.334257406821e+01 0.000000000000e+00 
3.345228723020e+01 0.000000000000e+00 
3.355180815481e+01 0.000000000000e+00 
3.366152131680e+01 0.000000000000e+00 
3.375894990209e+01 0.000000000000e+00 
3.386866306408e+01 0.000000000000e+00 
3.396402023233e+01 0.000000000000e+00 
3.407373339432e+01 0.000000000000e+00 
3.416703985902e+01 0.000000000000e+00 
3.427675302101e+01 0.000000000000e+00 
3.436802928841e+01 0.000000000000e+00 
3.447774245040e+01 0.000000000000e+00 
3.456700882367e+01 0.000000000000e+00 
3.467672198567e+01 0.000000000000e+00 
3.476399856370e+01 0.000000000000e+00 
3.487371172570e+01 0.000000000000e+00 
3.495901840723e+01 0.000000000000e+00 
3.506873156922e+01 0.000000000000e+00 
3.515208805420e+01 0.000000000000e+00 
3.526180121620e+01 0.000000000000e+00 
3.534322700463e+01 0.000000000000e+00 
3.545294016662e+01 0.000000000000e+00 
3.553245456481e+01 0.000000000000e+00 
3.564216772681e+01 0.000000000000e+00 
3.571978984906e+01 0.000000000000e+00 
3.582950301106e+01 0.000000000000e+00 
3.590525178066e+01 0.000000000000e+00 
3.601496494265e+01 0.000000000000e+00 
3.608885909312e+01 0.000000000000e+00 
3.619857225512e+01 0.000000000000e+00 
3.627063033140e+01 0.000000000000e+00 
3.638034349339e+01 0.000000000000e+00 
3.645058385558e+01 0.000000000000e+00 
3.656029701758e+01 0.000000000000e+00 
3.662873784464e+01 0.000000000000e+00 
3.673845100664e+01 0.000000000000e+00 
3.680511029480e+01 0.000000000000e+00 
3.691482345680e+01 0.000000000000e+00 
3.697971902061e+01 0.000000000000e+00 
3.708943218261e+01 0.000000000000e+00 
3.715258165853e+01 0.000000000000e+00 
3.726229482052e+01 0.000000000000e+00 
3.732371567048e+01 0.000000000000e+00 
3.743342883248e+01 0.000000000000e+00 
3.749313834215e+01 0.000000000000e+00 
3.760285150415e+01 0.000000000000e+00 
3.766086678648e+01 0.000000000000e+00 
3.777057994848e+01 0.000000000000e+00 
3.782691794710e+01 0.000000000000e+00 
3.793663110910e+01 0.000000000000e+00 
3.799130859652e+01 0.000000000000e+00 
3.810102175852e+01 0.000000000000e+00 
3.815405533955e+01 0.000000000000e+00 
3.826376850154e+01 0.000000000000e+00 
3.831517461398e+01 0.000000000000e+00 
3.842488777597e+01 0.000000000000e+00 
3.847468269660e+01 0.000000000000e+00 
3.858439585859e+01 0.000000000000e+00 
3.863259569849e+01 0.000000000000e+00 
3.874230886049e+01 0.000000000000e+00 
3.878892956846e+01 0.000000000000e+00 
3.889864273046e+01 0.000000000000e+00 
3.894370010137e+01 0.000000000000e+00 
3.905341326337e+01 0.000000000000e+00 
3.909692293084e+01 0.000000000000e+00 
3.920663609284e+01 0.000000000000e+00 
3.924861353249e+01 0.000000000000e+00 
3.935832669448e+01 0.000000000000e+00 
3.939878722701e+01 0.000000000000e+00 
3.950850038901e+01 0.000000000000e+00 
3.954745918333e+01 0.000000000000e+00 
3.965717234532e+01 0.000000000000e+00 
3.969464441895e+01 0.000000000000e+00 
3.980435758094e+01 0.000000000000e+00 
3.984035780307e+01 0.000000000000e+00 
3.995007096506e+01 0.000000000000e+00 
3.998461405424e+01 0.000000000000e+00 
4.009432721623e+01 0.000000000000e+00 
4.012742774085e+01 0.000000000000e+00 
4.023714090285e+01 0.000000000000e+00 
4.026881329188e+01 0.000000000000e+00 
4.037852645387e+01 0.000000000000e+00 
4.040878498923e+01 0.000000000000e+00 
4.051849815122e+01 0.000000000000e+00 
4.054735696814e+01 0.000000000000e+00 
4.065707013014e+01 0.000000000000e+00 
4.068454322787e+01 0.000000000000e+00 
4.079425638987e+01 0.000000000000e+00 
4.082035762658e+01 0.000000000000e+00 
4.093007078857e+01 0.000000000000e+00 
4.095481387896e+01 0.000000000000e+00 
4.106452704095e+01 0.000000000000e+00 
4.108792556692e+01 0.000000000000e+00 
4.119763872891e+01 0.000000000000e+00 
4.121970613958e+01 0.000000000000e+00 
4.132941930157e+01 0.000000000000e+00 
4.135016890817e+01 0.000000000000e+00 
4.145988207017e+01 0.000000000000e+00 
4.147932704877e+01 0.000000000000e+00 
4.158904021077e+01 0.000000000000e+00 
4.160719360756e+01 0.000000000000e+00 
4.171690676956e+01 0.000000000000e+00 
4.173378150083e+01 0.000000000000e+00 
4.184349466282e+01 0.000000000000e+00 
4.185910351496e+01 0.000000000000e+00 
4.196881667696e+01 0.000000000000e+00 
4.198317230905e+01 0.000000000000e+00 
4.209288547105e+01 0.000000000000e+00 
4.210600041480e+01 0.000000000000e+00 
4.221571357679e+01 0.000000000000e+00 
4.222760023906e+01 0.000000000000e+00 
4.233731340105e+01 0.000000000000e+00 
4.234798406636e+01 0.000000000000e+00 
4.245769722835e+01 0.000000000000e+00 
4.246716405609e+01 0.000000000000e+00 
4.257687721808e+01 0.000000000000e+00 
4.258515224504e+01 0.000000000000e+00 
4.269486540703e+01 0.000000000000e+00 
4.270196055240e+01 0.000000000000e+00 
4.281167371440e+01 0.000000000000e+00 
4.281760077693e+01 0.000000000000e+00 
4.292731393892e+01 0.000000000000e+00 
4.293208459935e+01 0.000000000000e+00 
4.304179776135e+01 0.000000000000e+00 
4.304542358208e+01 0.000000000000e+00 
4.315513674408e+01 0.000000000000e+00 
4.315762917424e+01 0.000000000000e+00 
4.326734233623e+01 0.000000000000e+00 
4.326871271122e+01 0.000000000000e+00 
4.337842587322e+01 0.000000000000e+00 
4.337868541186e+01 0.000000000000e+00 
4.348755838589e+01 0.000000000000e+00 
4.348839857386e+01 0.000000000000e+00 
4.359534263094e+01 0.000000000000e+00 
4.359727154789e+01 0.000000000000e+00 
4.370204903213e+01 0.000000000000e+00 
4.370505579293e+01 0.000000000000e+00 
4.380768836960e+01 0.000000000000e+00 
4.381176219413e+01 0.000000000000e+00 
4.391227131528e+01 0.000000000000e+00 
4.391740153160e+01 0.000000000000e+00 
4.401580842993e+01 0.000000000000e+00 
4.402198447727e+01 0.000000000000e+00 
4.411831017318e+01 0.000000000000e+00 
4.412552159193e+01 0.000000000000e+00 
4.421978690021e+01 0.000000000000e+00 
4.422802333517e+01 0.000000000000e+00 
4.432024885878e+01 0.000000000000e+00 
4.432950006220e+01 0.000000000000e+00 
4.441970619913e+01 0.000000000000e+00 
4.442996202078e+01 0.000000000000e+00 
4.451816896802e+01 0.000000000000e+00 
4.452941936112e+01 0.000000000000e+00 
4.461564710837e+01 0.000000000000e+00 
4.462788213002e+01 0.000000000000e+00 
4.471215046635e+01 0.000000000000e+00 
4.472536027037e+01 0.000000000000e+00 
4.480768879083e+01 0.000000000000e+00 
4.482186362835e+01 0.000000000000e+00 
4.490227173264e+01 0.000000000000e+00 
4.491740195282e+01 0.000000000000e+00 
4.499590884400e+01 0.000000000000e+00 
4.501198489464e+01 0.000000000000e+00 
4.508860958302e+01 0.000000000000e+00 
4.510562200600e+01 0.000000000000e+00 
4.518038331560e+01 0.000000000000e+00 
4.519832274502e+01 0.000000000000e+00 
4.527123931207e+01 0.000000000000e+00 
4.529009647760e+01 0.000000000000e+00 
4.536118674911e+01 0.000000000000e+00 
4.538095247407e+01 0.000000000000e+00 
4.545023471156e+01 0.000000000000e+00 
4.547089991110e+01 0.000000000000e+00 
4.553839219433e+01 0.000000000000e+00 
4.555994787356e+01 0.000000000000e+00 
4.562566810149e+01 0.000000000000e+00 
4.564810535633e+01 0.000000000000e+00 
4.571207124816e+01 0.000000000000e+00 
4.573538126348e+01 0.000000000000e+00 
4.579761036486e+01 0.000000000000e+00 
4.582178441016e+01 0.000000000000e+00 
4.588229409139e+01 0.000000000000e+00 
4.590732352686e+01 0.000000000000e+00 
4.596613097865e+01 0.000000000000e+00 
4.599200725339e+01 0.000000000000e+00 
4.604912949558e+01 0.000000000000e+00 
4.607584414065e+01 0.000000000000e+00 
4.613129802822e+01 0.000000000000e+00 
4.615884265758e+01 0.000000000000e+00 
4.621264487615e+01 0.000000000000e+00 
4.624101119021e+01 0.000000000000e+00 
4.629317825687e+01 0.000000000000e+00 
4.632235803815e+01 0.000000000000e+00 
4.637290630472e+01 0.000000000000e+00 
4.640289141887e+01 0.000000000000e+00 
4.645183707003e+01 0.000000000000e+00 
4.648261946671e+01 0.000000000000e+00 
4.652997852594e+01 0.000000000000e+00 
4.656155023202e+01 0.000000000000e+00 
4.660733856736e+01 0.000000000000e+00 
4.663969168793e+01 0.000000000000e+00 
4.668392500994e+01 0.000000000000e+00 
4.671705172935e+01 0.000000000000e+00 
4.675974558906e+01 0.000000000000e+00 
4.679363817194e+01 0.000000000000e+00 
4.683480796138e+01 0.000000000000e+00 
4.686945875106e+01 0.000000000000e+00 
4.690911970904e+01 0.000000000000e+00 
4.694452112338e+01 0.000000000000e+00 
4.698268834115e+01 0.000000000000e+00 
4.701883287104e+01 0.000000000000e+00 
4.709240150314e+01 0.000000000000e+00 
 TITLE = "Profiles along polylines"
 VARIABLES = "DIST" "HEAD" 
 ZONE T="TIME=1.797693134862e+308"
1.198268834115e+01 3.360698003767e+01 
1.209240150314e+01 3.359867405245e+01 
1.240552128541e+01 3.360677448962e+01 
1.251523444741e+01 3.359846809974e+01 
1.282412590255e+01 3.360657251634e+01 
1.293383906455e+01 3.359826571945e+01 
1.323854447242e+01 3.360637405169e+01 
1.334825763442e+01 3.359806684562e+01 
1.364881885644e+01 3.360617903073e+01 
1.375853201844e+01 3.359787141350e+01 
1.405499049810e+01 3.360598738977e+01 
1.416470366009e+01 3.359767935957e+01 
1.445710042352e+01 3.360579906629e+01 
1.456681358551e+01 3.359749062149e+01 
1.485518924977e+01 3.360561399898e+01 
1.496490241176e+01 3.359730513814e+01 
1.524929718778e+01 3.360543212768e+01 
1.535901034978e+01 3.359712284954e+01 
1.563946404526e+01 3.360525339337e+01 
1.574917720726e+01 3.359694369687e+01 
1.602572923212e+01 3.360507773819e+01 
1.613544239412e+01 3.359676762242e+01 
1.640813176842e+01 3.360490510534e+01 
1.651784493041e+01 3.359659456960e+01 
1.678671027905e+01 3.360473543912e+01 
1.689642344105e+01 3.359642448288e+01 
1.716150300440e+01 3.360456868491e+01 
1.727121616640e+01 3.359625730781e+01 
1.753254780255e+01 3.360440478910e+01 
1.764226096454e+01 3.359609299096e+01 
1.789988215192e+01 3.360424369913e+01 
1.800959531391e+01 3.359593147995e+01 
1.826354315868e+01 3.360408536343e+01 
1.837325632068e+01 3.359577272337e+01 
1.862356755386e+01 3.360392973142e+01 
1.873328071585e+01 3.359561667080e+01 
1.897999170597e+01 3.360377675349e+01 
1.908970486797e+01 3.359546327279e+01 
1.933285161783e+01 3.360362638096e+01 
1.944256477983e+01 3.359531248084e+01 
1.968218293130e+01 3.360347856611e+01 
1.979189609330e+01 3.359516424735e+01 
2.002802093179e+01 3.360333326211e+01 
2.013773409379e+01 3.359501852566e+01 
2.037040055023e+01 3.360319042302e+01 
2.048011371223e+01 3.359487526997e+01 
2.070935637268e+01 3.360305000380e+01 
2.081906953467e+01 3.359473443538e+01 
2.104492263681e+01 3.360291196025e+01 
2.115463579880e+01 3.359459597782e+01 
2.137713323892e+01 3.360277624903e+01 
2.148684640091e+01 3.359445985410e+01 
2.170602173540e+01 3.360264282762e+01 
2.181573489740e+01 3.359432602180e+01 
2.203162134705e+01 3.360251165431e+01 
2.214133450905e+01 3.359419443935e+01 
2.235396496304e+01 3.360238268820e+01 
2.246367812504e+01 3.359406506596e+01 
2.267308514239e+01 3.360225588916e+01 
2.278279830438e+01 3.359393786160e+01 
2.298901412051e+01 3.360213121782e+01 
2.309872728250e+01 3.359381278704e+01 
2.330178380786e+01 3.360200863557e+01 
2.341149696985e+01 3.359368980375e+01 
2.361142579905e+01 3.360188810455e+01 
2.372113896104e+01 3.359356887396e+01 
2.391797137126e+01 3.360176958759e+01 
2.402768453326e+01 3.359344996062e+01 
2.422145148546e+01 3.360165304826e+01 
2.433116464746e+01 3.359333302736e+01 
2.452189679783e+01 3.360153845081e+01 
2.463160995983e+01 3.359321803854e+01 
2.481933765805e+01 3.360142576017e+01 
2.492905082004e+01 3.359310495916e+01 
2.511380411023e+01 3.360131494195e+01 
2.522351727223e+01 3.359299375489e+01 
2.540532589901e+01 3.360120596239e+01 
2.551503906100e+01 3.359288439206e+01 
2.569393247027e+01 3.360109878839e+01 
2.580364563226e+01 3.359277683764e+01 
2.597965297451e+01 3.360099338749e+01 
2.608936613650e+01 3.359267105923e+01 
2.626251627274e+01 3.360088972782e+01 
2.637222943473e+01 3.359256702501e+01 
2.654255093702e+01 3.360078777814e+01 
2.665226409901e+01 3.359246470380e+01 
2.681978525365e+01 3.360068750779e+01 
2.692949841564e+01 3.359236406499e+01 
2.709424722887e+01 3.360058888670e+01 
2.720396039086e+01 3.359226507855e+01 
2.736596458660e+01 3.360049188535e+01 
2.747567774859e+01 3.359216771502e+01 
2.763496477151e+01 3.360039647480e+01 
2.774467793351e+01 3.359207194549e+01 
2.790127495454e+01 3.360030262666e+01 
2.801098811654e+01 3.359197774161e+01 
2.816492203315e+01 3.360021031306e+01 
2.827463519515e+01 3.359188507555e+01 
2.842593263940e+01 3.360011950668e+01 
2.853564580140e+01 3.359179392000e+01 
2.868433313999e+01 3.360003018069e+01 
2.879404630198e+01 3.359170424817e+01 
2.894014963642e+01 3.359994230878e+01 
2.904986279842e+01 3.359161603377e+01 
2.919340796762e+01 3.359985586514e+01 
2.930312112961e+01 3.359152925102e+01 
2.944413371520e+01 3.359977082444e+01 
2.955384687720e+01 3.359144387461e+01 
2.969235220597e+01 3.359968716184e+01 
2.980206536797e+01 3.359135987969e+01 
2.993808851181e+01 3.359960485295e+01 
3.004780167380e+01 3.359127724191e+01 
3.018136745474e+01 3.359952387384e+01 
3.029108061673e+01 3.359119593734e+01 
3.042221360934e+01 3.359944420105e+01 
3.053192677134e+01 3.359111594252e+01 
3.066065130243e+01 3.359936581155e+01 
3.077036446443e+01 3.359103723444e+01 
3.089670461804e+01 3.359928868272e+01 
3.100641778004e+01 3.359095979048e+01 
3.113039739959e+01 3.359921279241e+01 
3.124011056158e+01 3.359088358847e+01 
3.136175325216e+01 3.359913811884e+01 
3.147146641416e+01 3.359080860666e+01 
3.159079554718e+01 3.359906464066e+01 
3.170050870918e+01 3.359073482369e+01 
3.181754741934e+01 3.359899233693e+01 
3.192726058133e+01 3.359066221859e+01 
3.204203177385e+01 3.359892118708e+01 
3.215174493585e+01 3.359059077081e+01 
3.226427128585e+01 3.359885117092e+01 
3.237398444784e+01 3.359052046015e+01 
3.248428840237e+01 3.359878226867e+01 
3.259400156437e+01 3.359045126680e+01 
3.270210534687e+01 3.359871446089e+01 
3.281181850887e+01 3.359038317133e+01 
3.291774412112e+01 3.359864772850e+01 
3.302745728312e+01 3.359031615464e+01 
3.313122650698e+01 3.359858205281e+01 
3.324093966898e+01 3.359025019801e+01 
3.334257406821e+01 3.359851741543e+01 
3.345228723020e+01 3.359018528306e+01 
3.355180815481e+01 3.359845379834e+01 
3.366152131680e+01 3.359012139175e+01 
3.375894990209e+01 3.359839118386e+01 
3.386866306408e+01 3.359005850636e+01 
3.396402023233e+01 3.359832955461e+01 
3.407373339432e+01 3.358999660951e+01 
3.416703985902e+01 3.359826889357e+01 
3.427675302101e+01 3.358993568414e+01 
3.436802928841e+01 3.359820918400e+01 
3.447774245040e+01 3.358987571352e+01 
3.456700882367e+01 3.359815040949e+01 
3.467672198567e+01 3.358981668119e+01 
3.476399856370e+01 3.359809255392e+01 
3.487371172570e+01 3.358975857102e+01 
3.495901840723e+01 3.359803560149e+01 
3.506873156922e+01 3.358970136717e+01 
3.515208805420e+01 3.359797953666e+01 
3.526180121620e+01 3.358964505410e+01 
3.534322700463e+01 3.359792434420e+01 
3.545294016662e+01 3.358958961655e+01 
3.553245456481e+01 3.359787000916e+01 
3.564216772681e+01 3.358953503953e+01 
3.571978984906e+01 3.359781651685e+01 
3.582950301106e+01 3.358948130832e+01 
3.590525178066e+01 3.359776385286e+01 
3.601496494265e+01 3.358942840851e+01 
3.608885909312e+01 3.359771200305e+01 
3.619857225512e+01 3.358937632590e+01 
3.627063033140e+01 3.359766095352e+01 
3.638034349339e+01 3.358932504659e+01 
3.645058385558e+01 3.359761069065e+01 
3.656029701758e+01 3.358927455691e+01 
3.662873784464e+01 3.359756120104e+01 
3.673845100664e+01 3.358922484345e+01 
3.680511029480e+01 3.359751247157e+01 
3.691482345680e+01 3.358917589305e+01 
3.697971902061e+01 3.359746448933e+01 
3.708943218261e+01 3.358912769277e+01 
3.715258165853e+01 3.359741724167e+01 
3.726229482052e+01 3.358908022992e+01 
3.732371567048e+01 3.359737071614e+01 
3.743342883248e+01 3.358903349204e+01 
3.749313834215e+01 3.359732490055e+01 
3.760285150415e+01 3.358898746690e+01 
3.766086678648e+01 3.359727978290e+01 
3.777057994848e+01 3.358894214248e+01 
3.782691794710e+01 3.359723535144e+01 
3.793663110910e+01 3.358889750698e+01 
3.799130859652e+01 3.359719159461e+01 
3.810102175852e+01 3.358885354883e+01 
3.815405533955e+01 3.359714850108e+01 
3.826376850154e+01 3.358881025664e+01 
3.831517461398e+01 3.359710605969e+01 
3.842488777597e+01 3.358876761926e+01 
3.847468269660e+01 3.359706425953e+01 
3.858439585859e+01 3.358872562572e+01 
3.863259569849e+01 3.359702308985e+01 
3.874230886049e+01 3.358868426525e+01 
3.878892956846e+01 3.359698254011e+01 
3.889864273046e+01 3.358864352728e+01 
3.894370010137e+01 3.359694259996e+01 
3.905341326337e+01 3.358860340142e+01 
3.909692293084e+01 3.359690325923e+01 
3.920663609284e+01 3.358856387747e+01 
3.924861353249e+01 3.359686450794e+01 
3.935832669448e+01 3.358852494544e+01 
3.939878722701e+01 3.359682633629e+01 
3.950850038901e+01 3.358848659547e+01 
3.954745918333e+01 3.359678873465e+01 
3.965717234532e+01 3.358844881792e+01 
3.969464441895e+01 3.359675169357e+01 
3.980435758094e+01 3.358841160330e+01 
3.984035780307e+01 3.359671520376e+01 
3.995007096506e+01 3.358837494230e+01 
3.998461405424e+01 3.359667925611e+01 
4.009432721623e+01 3.358833882577e+01 
4.012742774085e+01 3.359664384167e+01 
4.023714090285e+01 3.358830324473e+01 
4.026881329188e+01 3.359660895163e+01 
4.037852645387e+01 3.358826819035e+01 
4.040878498923e+01 3.359657457737e+01 
4.051849815122e+01 3.358823365397e+01 
4.054735696814e+01 3.359654071040e+01 
4.065707013014e+01 3.358819962707e+01 
4.068454322787e+01 3.359650734238e+01 
4.079425638987e+01 3.358816610130e+01 
4.082035762658e+01 3.359647446515e+01 
4.093007078857e+01 3.358813306845e+01 
4.095481387896e+01 3.359644207066e+01 
4.106452704095e+01 3.358810052045e+01 
4.108792556692e+01 3.359641015101e+01 
4.119763872891e+01 3.358806844937e+01 
4.121970613958e+01 3.359637869846e+01 
4.132941930157e+01 3.358803684745e+01 
4.135016890817e+01 3.359634770539e+01 
4.145988207017e+01 3.358800570702e+01 
4.147932704877e+01 3.359631716431e+01 
4.158904021077e+01 3.358797502059e+01 
4.160719360756e+01 3.359628706788e+01 
4.171690676956e+01 3.358794478077e+01 
4.173378150083e+01 3.359625740888e+01 
4.184349466282e+01 3.358791498033e+01 
4.185910351496e+01 3.359622818022e+01 
4.196881667696e+01 3.358788561214e+01 
4.198317230905e+01 3.359619937493e+01 
4.209288547105e+01 3.358785666921e+01 
4.210600041480e+01 3.359617098617e+01 
4.221571357679e+01 3.358782814467e+01 
4.222760023906e+01 3.359614300721e+01 
4.233731340105e+01 3.358780003178e+01 
4.234798406636e+01 3.359611543146e+01 
4.245769722835e+01 3.358777232390e+01 
4.246716405609e+01 3.359608825243e+01 
4.257687721808e+01 3.358774501452e+01 
4.258515224504e+01 3.359606146373e+01 
4.269486540703e+01 3.358771809724e+01 
4.270196055240e+01 3.359603505911e+01 
4.281167371440e+01 3.358769156577e+01 
4.281760077693e+01 3.359600903241e+01 
4.292731393892e+01 3.358766541394e+01 
4.293208459935e+01 3.359598337759e+01 
4.304179776135e+01 3.358763963567e+01 
4.304542358208e+01 3.359595808872e+01 
4.315513674408e+01 3.358761422501e+01 
4.315762917424e+01 3.359593315994e+01 
4.326734233623e+01 3.358758917609e+01 
4.326871271122e+01 3.359590858554e+01 
4.337842587322e+01 3.358756448315e+01 
4.337868541186e+01 3.359588435987e+01 
4.348755838589e+01 3.359586047740e+01 
4.348839857386e+01 3.358754014054e+01 
4.359534263094e+01 3.359583693268e+01 
4.359727154789e+01 3.358751614270e+01 
4.370204903213e+01 3.359581372038e+01 
4.370505579293e+01 3.358749248417e+01 
4.380768836960e+01 3.359579083524e+01 
4.381176219413e+01 3.358746915957e+01 
4.391227131528e+01 3.359576827210e+01 
4.391740153160e+01 3.358744616363e+01 
4.401580842993e+01 3.359574602588e+01 
4.402198447727e+01 3.358742349118e+01 
4.411831017318e+01 3.359572409161e+01 
4.412552159193e+01 3.358740113711e+01 
4.421978690021e+01 3.359570246437e+01 
4.422802333517e+01 3.358737909642e+01 
4.432024885878e+01 3.359568113936e+01 
4.432950006220e+01 3.358735736418e+01 
4.441970619913e+01 3.359566011184e+01 
4.442996202078e+01 3.358733593557e+01 
4.451816896802e+01 3.359563937717e+01 
4.452941936112e+01 3.358731480583e+01 
4.461564710837e+01 3.359561893077e+01 
4.462788213002e+01 3.358729397030e+01 
4.471215046635e+01 3.359559876816e+01 
4.472536027037e+01 3.358727342437e+01 
4.480768879083e+01 3.359557888491e+01 
4.482186362835e+01 3.358725316354e+01 
4.490227173264e+01 3.359555927668e+01 
4.491740195282e+01 3.358723318338e+01 
4.499590884400e+01 3.359553993922e+01 
4.501198489464e+01 3.358721347953e+01 
4.508860958302e+01 3.359552086833e+01 
4.510562200600e+01 3.358719404770e+01 
4.518038331560e+01 3.359550205988e+01 
4.519832274502e+01 3.358717488368e+01 
4.527123931207e+01 3.359548350983e+01 
4.529009647760e+01 3.358715598333e+01 
4.536118674911e+01 3.359546521419e+01 
4.538095247407e+01 3.358713734259e+01 
4.545023471156e+01 3.359544716906e+01 
4.547089991110e+01 3.358711895745e+01 
4.553839219433e+01 3.359542937058e+01 
4.555994787356e+01 3.358710082399e+01 
4.562566810149e+01 3.359541181496e+01 
4.564810535633e+01 3.358708293833e+01 
4.571207124816e+01 3.359539449850e+01 
4.573538126348e+01 3.358706529668e+01 
4.579761036486e+01 3.359537741753e+01 
4.582178441016e+01 3.358704789530e+01 
4.588229409139e+01 3.359536056846e+01 
4.590732352686e+01 3.358703073053e+01 
4.596613097865e+01 3.359534394776e+01 
4.599200725339e+01 3.358701379874e+01 
4.604912949558e+01 3.359532755195e+01 
4.607584414065e+01 3.358699709639e+01 
4.613129802822e+01 3.359531137762e+01 
4.615884265758e+01 3.358698062000e+01 
4.621264487615e+01 3.359529542141e+01 
4.624101119021e+01 3.358696436613e+01 
4.629317825687e+01 3.359527968002e+01 
4.632235803815e+01 3.358694833140e+01 
4.637290630472e+01 3.359526415019e+01 
4.640289141887e+01 3.358693251251e+01 
4.645183707003e+01 3.359524882874e+01 
4.648261946671e+01 3.358691690618e+01 
4.652997852594e+01 3.359523371253e+01 
4.656155023202e+01 3.358690150922e+01 
4.660733856736e+01 3.359521879848e+01 
4.663969168793e+01 3.358688631846e+01 
4.668392500994e+01 3.359520408354e+01 
4.671705172935e+01 3.358687133081e+01 
4.675974558906e+01 3.359518956473e+01 
4.679363817194e+01 3.358685654323e+01 
4.683480796138e+01 3.359517523912e+01 
4.686945875106e+01 3.358684195270e+01 
4.690911970904e+01 3.359516110382e+01 
4.694452112338e+01 3.358682755629e+01 
4.698268834115e+01 3.359514715601e+01 
4.701883287104e+01 3.358681335109e+01 
4.709240150314e+01 3.358679933426e+01 
