 TITLE = "Profiles along polylines"
 VARIABLES = "DIST" "HEAD" 
 ZONE T="TIME=0.000000000000e+00"
6.681252916945e+01 0.000000000000e+00 
6.723536211372e+01 0.000000000000e+00 
6.765396673086e+01 0.000000000000e+00 
6.806838530073e+01 0.000000000000e+00 
6.847865968475e+01 0.000000000000e+00 
6.888483132640e+01 0.000000000000e+00 
6.928694125183e+01 0.000000000000e+00 
6.968503007808e+01 0.000000000000e+00 
7.007913801609e+01 0.000000000000e+00 
7.046930487357e+01 0.000000000000e+00 
7.085557006044e+01 0.000000000000e+00 
7.123797259673e+01 0.000000000000e+00 
7.161655110737e+01 0.000000000000e+00 
7.199134383271e+01 0.000000000000e+00 
7.236238863086e+01 0.000000000000e+00 
7.272972298023e+01 0.000000000000e+00 
7.309338398700e+01 0.000000000000e+00 
7.345340838217e+01 0.000000000000e+00 
7.380983253429e+01 0.000000000000e+00 
7.416269244615e+01 0.000000000000e+00 
7.451202375962e+01 0.000000000000e+00 
7.485786176011e+01 0.000000000000e+00 
7.520024137855e+01 0.000000000000e+00 
7.553919720100e+01 0.000000000000e+00 
7.587476346513e+01 0.000000000000e+00 
7.620697406724e+01 0.000000000000e+00 
7.653586256372e+01 0.000000000000e+00 
7.686146217538e+01 0.000000000000e+00 
7.718380579136e+01 0.000000000000e+00 
7.750292597071e+01 0.000000000000e+00 
7.781885494883e+01 0.000000000000e+00 
7.813162463618e+01 0.000000000000e+00 
7.844126662737e+01 0.000000000000e+00 
7.874781219959e+01 0.000000000000e+00 
7.905129231379e+01 0.000000000000e+00 
7.935173762616e+01 0.000000000000e+00 
7.964917848637e+01 0.000000000000e+00 
7.994364493856e+01 0.000000000000e+00 
8.023516672734e+01 0.000000000000e+00 
8.052377329860e+01 0.000000000000e+00 
8.080949380284e+01 0.000000000000e+00 
8.109235710107e+01 0.000000000000e+00 
8.137239176535e+01 0.000000000000e+00 
8.164962608198e+01 0.000000000000e+00 
8.192408805720e+01 0.000000000000e+00 
8.219580541493e+01 0.000000000000e+00 
8.246480559984e+01 0.000000000000e+00 
8.273111578288e+01 0.000000000000e+00 
8.299476286148e+01 0.000000000000e+00 
8.325577346774e+01 0.000000000000e+00 
8.351417396832e+01 0.000000000000e+00 
8.376999046476e+01 0.000000000000e+00 
8.402324879595e+01 0.000000000000e+00 
8.427397454354e+01 0.000000000000e+00 
8.452219303430e+01 0.000000000000e+00 
8.476792934014e+01 0.000000000000e+00 
8.501120828307e+01 0.000000000000e+00 
8.525205443768e+01 0.000000000000e+00 
8.549049213077e+01 0.000000000000e+00 
8.572654544637e+01 0.000000000000e+00 
8.596023822792e+01 0.000000000000e+00 
8.619159408049e+01 0.000000000000e+00 
8.642063637552e+01 0.000000000000e+00 
8.664738824767e+01 0.000000000000e+00 
8.687187260218e+01 0.000000000000e+00 
8.709411211418e+01 0.000000000000e+00 
8.731412923070e+01 0.000000000000e+00 
8.753194617520e+01 0.000000000000e+00 
8.774758494945e+01 0.000000000000e+00 
8.796106733531e+01 0.000000000000e+00 
8.817241489653e+01 0.000000000000e+00 
8.838164898314e+01 0.000000000000e+00 
8.858879073042e+01 0.000000000000e+00 
8.879386106065e+01 0.000000000000e+00 
8.899688068734e+01 0.000000000000e+00 
8.919787011673e+01 0.000000000000e+00 
8.939684965200e+01 0.000000000000e+00 
8.959383939203e+01 0.000000000000e+00 
8.978885923555e+01 0.000000000000e+00 
8.998192888253e+01 0.000000000000e+00 
9.017306783295e+01 0.000000000000e+00 
9.036229539313e+01 0.000000000000e+00 
9.054963067738e+01 0.000000000000e+00 
9.073509260898e+01 0.000000000000e+00 
9.091869992145e+01 0.000000000000e+00 
9.110047115972e+01 0.000000000000e+00 
9.128042468390e+01 0.000000000000e+00 
9.145857867296e+01 0.000000000000e+00 
9.163495112312e+01 0.000000000000e+00 
9.180955984893e+01 0.000000000000e+00 
9.198242248685e+01 0.000000000000e+00 
9.215355649880e+01 0.000000000000e+00 
9.232297917047e+01 0.000000000000e+00 
9.249070761480e+01 0.000000000000e+00 
9.265675877542e+01 0.000000000000e+00 
9.282114942484e+01 0.000000000000e+00 
9.298389616787e+01 0.000000000000e+00 
9.314501544230e+01 0.000000000000e+00 
9.330452352491e+01 0.000000000000e+00 
9.346243652681e+01 0.000000000000e+00 
9.361877039678e+01 0.000000000000e+00 
9.377354092969e+01 0.000000000000e+00 
9.392676375916e+01 0.000000000000e+00 
9.407845436080e+01 0.000000000000e+00 
9.422862805533e+01 0.000000000000e+00 
9.437730001164e+01 0.000000000000e+00 
9.452448524726e+01 0.000000000000e+00 
9.467019863138e+01 0.000000000000e+00 
9.481445488255e+01 0.000000000000e+00 
9.495726856917e+01 0.000000000000e+00 
9.509865412019e+01 0.000000000000e+00 
9.523862581754e+01 0.000000000000e+00 
9.537719779646e+01 0.000000000000e+00 
9.551438405619e+01 0.000000000000e+00 
9.565019845489e+01 0.000000000000e+00 
9.578465470727e+01 0.000000000000e+00 
9.591776639523e+01 0.000000000000e+00 
9.604954696789e+01 0.000000000000e+00 
9.618000973649e+01 0.000000000000e+00 
9.630916787708e+01 0.000000000000e+00 
9.643703443587e+01 0.000000000000e+00 
9.656362232914e+01 0.000000000000e+00 
9.668894434328e+01 0.000000000000e+00 
9.681301313736e+01 0.000000000000e+00 
9.693584124311e+01 0.000000000000e+00 
9.705744106737e+01 0.000000000000e+00 
9.717782489467e+01 0.000000000000e+00 
9.729700488440e+01 0.000000000000e+00 
9.741499307335e+01 0.000000000000e+00 
9.753180138071e+01 0.000000000000e+00 
9.764744160524e+01 0.000000000000e+00 
9.776192542766e+01 0.000000000000e+00 
9.787526441039e+01 0.000000000000e+00 
9.798747000255e+01 0.000000000000e+00 
9.809855353953e+01 0.000000000000e+00 
9.820852624017e+01 0.000000000000e+00 
9.831739921420e+01 0.000000000000e+00 
9.842518345925e+01 0.000000000000e+00 
9.853188986044e+01 0.000000000000e+00 
9.863752919791e+01 0.000000000000e+00 
9.874211214358e+01 0.000000000000e+00 
9.884564925824e+01 0.000000000000e+00 
9.894815100148e+01 0.000000000000e+00 
9.904962772852e+01 0.000000000000e+00 
9.915008968709e+01 0.000000000000e+00 
9.924954702743e+01 0.000000000000e+00 
9.934800979633e+01 0.000000000000e+00 
9.944548793668e+01 0.000000000000e+00 
9.954199129466e+01 0.000000000000e+00 
9.963752961914e+01 0.000000000000e+00 
9.973211256095e+01 0.000000000000e+00 
9.982574967231e+01 0.000000000000e+00 
9.991845041133e+01 0.000000000000e+00 
1.000102241439e+02 0.000000000000e+00 
1.001010801404e+02 0.000000000000e+00 
1.001910275774e+02 0.000000000000e+00 
1.002800755399e+02 0.000000000000e+00 
1.003682330226e+02 0.000000000000e+00 
1.004555089298e+02 0.000000000000e+00 
1.005419120765e+02 0.000000000000e+00 
1.006274511932e+02 0.000000000000e+00 
1.007121349197e+02 0.000000000000e+00 
1.007959718070e+02 0.000000000000e+00 
1.008789703239e+02 0.000000000000e+00 
1.009611388565e+02 0.000000000000e+00 
1.010424857045e+02 0.000000000000e+00 
1.011230190852e+02 0.000000000000e+00 
1.012027471330e+02 0.000000000000e+00 
1.012816778983e+02 0.000000000000e+00 
1.013598193542e+02 0.000000000000e+00 
1.014371793957e+02 0.000000000000e+00 
1.015137658382e+02 0.000000000000e+00 
1.015895864174e+02 0.000000000000e+00 
1.016646487897e+02 0.000000000000e+00 
1.017389605373e+02 0.000000000000e+00 
1.018125291695e+02 0.000000000000e+00 
 TITLE = "Profiles along polylines"
 VARIABLES = "DIST" "HEAD" 
 ZONE T="TIME=1.797693134862e+308"
6.681252916945e+01 3.157116045727e+01 
6.723536211372e+01 3.157042406195e+01 
6.765396673086e+01 3.156969278628e+01 
6.806838530073e+01 3.156896679803e+01 
6.847865968475e+01 3.156824622505e+01 
6.888483132640e+01 3.156753117590e+01 
6.928694125183e+01 3.156682174954e+01 
6.968503007808e+01 3.156611803912e+01 
7.007913801609e+01 3.156542013293e+01 
7.046930487357e+01 3.156472811413e+01 
7.085557006044e+01 3.156404205992e+01 
7.123797259673e+01 3.156336204080e+01 
7.161655110737e+01 3.156268811991e+01 
7.199134383271e+01 3.156202035268e+01 
7.236238863086e+01 3.156135878661e+01 
7.272972298023e+01 3.156070346129e+01 
7.309338398700e+01 3.156005440858e+01 
7.345340838217e+01 3.155941165288e+01 
7.380983253429e+01 3.155877521150e+01 
7.416269244615e+01 3.155814509505e+01 
7.451202375962e+01 3.155752130790e+01 
7.485786176011e+01 3.155690384866e+01 
7.520024137855e+01 3.155629271056e+01 
7.553919720100e+01 3.155568788195e+01 
7.587476346513e+01 3.155508934671e+01 
7.620697406724e+01 3.155449708464e+01 
7.653586256372e+01 3.155391107183e+01 
7.686146217538e+01 3.155333128107e+01 
7.718380579136e+01 3.155275768211e+01 
7.750292597071e+01 3.155219024200e+01 
7.781885494883e+01 3.155162892538e+01 
7.813162463618e+01 3.155107369470e+01 
7.844126662737e+01 3.155052451050e+01 
7.874781219959e+01 3.154998133159e+01 
7.905129231379e+01 3.154944411529e+01 
7.935173762616e+01 3.154891281756e+01 
7.964917848637e+01 3.154838739321e+01 
7.994364493856e+01 3.154786779600e+01 
8.023516672734e+01 3.154735397884e+01 
8.052377329860e+01 3.154684589387e+01 
8.080949380284e+01 3.154634349258e+01 
8.109235710107e+01 3.154584672593e+01 
8.137239176535e+01 3.154535554441e+01 
8.164962608198e+01 3.154486989816e+01 
8.192408805720e+01 3.154438973703e+01 
8.219580541493e+01 3.154391501064e+01 
8.246480559984e+01 3.154344566847e+01 
8.273111578288e+01 3.154298165990e+01 
8.299476286148e+01 3.154252293426e+01 
8.325577346774e+01 3.154206944089e+01 
8.351417396832e+01 3.154162112917e+01 
8.376999046476e+01 3.154117794854e+01 
8.402324879595e+01 3.154073984860e+01 
8.427397454354e+01 3.154030677906e+01 
8.452219303430e+01 3.153987868984e+01 
8.476792934014e+01 3.153945553103e+01 
8.501120828307e+01 3.153903725296e+01 
8.525205443768e+01 3.153862380622e+01 
8.549049213077e+01 3.153821514164e+01 
8.572654544637e+01 3.153781121034e+01 
8.596023822792e+01 3.153741196373e+01 
8.619159408049e+01 3.153701735354e+01 
8.642063637552e+01 3.153662733179e+01 
8.664738824767e+01 3.153624185086e+01 
8.687187260218e+01 3.153586086343e+01 
8.709411211418e+01 3.153548432256e+01 
8.731412923070e+01 3.153511218164e+01 
8.753194617520e+01 3.153474439442e+01 
8.774758494945e+01 3.153438091499e+01 
8.796106733531e+01 3.153402169784e+01 
8.817241489653e+01 3.153366669778e+01 
8.838164898314e+01 3.153331587002e+01 
8.858879073042e+01 3.153296917012e+01 
8.879386106065e+01 3.153262655402e+01 
8.899688068734e+01 3.153228797803e+01 
8.919787011673e+01 3.153195339881e+01 
8.939684965200e+01 3.153162277342e+01 
8.959383939203e+01 3.153129605924e+01 
8.978885923555e+01 3.153097321407e+01 
8.998192888253e+01 3.153065419602e+01 
9.017306783295e+01 3.153033896361e+01 
9.036229539313e+01 3.153002747568e+01 
9.054963067738e+01 3.152971969144e+01 
9.073509260898e+01 3.152941557047e+01 
9.091869992145e+01 3.152911507267e+01 
9.110047115972e+01 3.152881815830e+01 
9.128042468390e+01 3.152852478796e+01 
9.145857867296e+01 3.152823492261e+01 
9.163495112312e+01 3.152794852350e+01 
9.180955984893e+01 3.152766555225e+01 
9.198242248685e+01 3.152738597081e+01 
9.215355649880e+01 3.152710974142e+01 
9.232297917047e+01 3.152683682666e+01 
9.249070761480e+01 3.152656718944e+01 
9.265675877542e+01 3.152630079296e+01 
9.282114942484e+01 3.152603760074e+01 
9.298389616787e+01 3.152577757658e+01 
9.314501544230e+01 3.152552068462e+01 
9.330452352491e+01 3.152526688926e+01 
9.346243652681e+01 3.152501615520e+01 
9.361877039678e+01 3.152476844745e+01 
9.377354092969e+01 3.152452373127e+01 
9.392676375916e+01 3.152428197222e+01 
9.407845436080e+01 3.152404313613e+01 
9.422862805533e+01 3.152380718911e+01 
9.437730001164e+01 3.152357409753e+01 
9.452448524726e+01 3.152334382804e+01 
9.467019863138e+01 3.152311634754e+01 
9.481445488255e+01 3.152289162319e+01 
9.495726856917e+01 3.152266962241e+01 
9.509865412019e+01 3.152245031289e+01 
9.523862581754e+01 3.152223366254e+01 
9.537719779646e+01 3.152201963954e+01 
9.551438405619e+01 3.152180821233e+01 
9.565019845489e+01 3.152159934957e+01 
9.578465470727e+01 3.152139302018e+01 
9.591776639523e+01 3.152118919333e+01 
9.604954696789e+01 3.152098783839e+01 
9.618000973649e+01 3.152078892502e+01 
9.630916787708e+01 3.152059242309e+01 
9.643703443587e+01 3.152039830273e+01 
9.656362232914e+01 3.152020653428e+01 
9.668894434328e+01 3.152001708834e+01 
9.681301313736e+01 3.151982993575e+01 
9.693584124311e+01 3.151964504756e+01 
9.705744106737e+01 3.151946239510e+01 
9.717782489467e+01 3.151928194992e+01 
9.729700488440e+01 3.151910368379e+01 
9.741499307335e+01 3.151892756876e+01 
9.753180138071e+01 3.151875357711e+01 
9.764744160524e+01 3.151858168135e+01 
9.776192542766e+01 3.151841185426e+01 
9.787526441039e+01 3.151824406886e+01 
9.798747000255e+01 3.151807829842e+01 
9.809855353953e+01 3.151791451648e+01 
9.820852624017e+01 3.151775269682e+01 
9.831739921420e+01 3.151759281348e+01 
9.842518345925e+01 3.151743484080e+01 
9.853188986044e+01 3.151727875334e+01 
9.863752919791e+01 3.151712452598e+01 
9.874211214358e+01 3.151697213383e+01 
9.884564925824e+01 3.151682155232e+01 
9.894815100148e+01 3.151667275714e+01 
9.904962772852e+01 3.151652572429e+01 
9.915008968709e+01 3.151638043006e+01 
9.924954702743e+01 3.151623685102e+01 
9.934800979633e+01 3.151609496406e+01 
9.944548793668e+01 3.151595474638e+01 
9.954199129466e+01 3.151581617550e+01 
9.963752961914e+01 3.151567922926e+01 
9.973211256095e+01 3.151554388580e+01 
9.982574967231e+01 3.151541012362e+01 
9.991845041133e+01 3.151527792155e+01 
1.000102241439e+02 3.151514725874e+01 
1.001010801404e+02 3.151501811473e+01 
1.001910275774e+02 3.151489046936e+01 
1.002800755399e+02 3.151476430288e+01 
1.003682330226e+02 3.151463959585e+01 
1.004555089298e+02 3.151451632925e+01 
1.005419120765e+02 3.151439448441e+01 
1.006274511932e+02 3.151427404302e+01 
1.007121349197e+02 3.151415498719e+01 
1.007959718070e+02 3.151403729939e+01 
1.008789703239e+02 3.151392096250e+01 
1.009611388565e+02 3.151380595979e+01 
1.010424857045e+02 3.151369227494e+01 
1.011230190852e+02 3.151357989201e+01 
1.012027471330e+02 3.151346879552e+01 
1.012816778983e+02 3.151335897036e+01 
1.013598193542e+02 3.151325040185e+01 
1.014371793957e+02 3.151314307574e+01 
1.015137658382e+02 3.151303697819e+01 
1.015895864174e+02 3.151293209579e+01 
1.016646487897e+02 3.151282841557e+01 
1.017389605373e+02 3.151272592498e+01 
1.018125291695e+02 3.151262461189e+01 
