 TITLE = "Profiles along polylines"
 VARIABLES = "DIST" "HEAD" 
 ZONE T="TIME=0.000000000000e+00"
3.772772557439e+01 0.000000000000e+00 
3.815055851866e+01 0.000000000000e+00 
3.856916313580e+01 0.000000000000e+00 
3.859327536026e+01 0.000000000000e+00 
3.898358170567e+01 0.000000000000e+00 
3.901610830452e+01 0.000000000000e+00 
3.939385608969e+01 0.000000000000e+00 
3.943471292166e+01 0.000000000000e+00 
3.980002773134e+01 0.000000000000e+00 
3.984913149154e+01 0.000000000000e+00 
4.020213765677e+01 0.000000000000e+00 
4.025940587556e+01 0.000000000000e+00 
4.060022648302e+01 0.000000000000e+00 
4.066557751721e+01 0.000000000000e+00 
4.099433442103e+01 0.000000000000e+00 
4.106768744263e+01 0.000000000000e+00 
4.138450127851e+01 0.000000000000e+00 
4.146577626888e+01 0.000000000000e+00 
4.177076646537e+01 0.000000000000e+00 
4.185988420690e+01 0.000000000000e+00 
4.215316900167e+01 0.000000000000e+00 
4.225005106438e+01 0.000000000000e+00 
4.253174751231e+01 0.000000000000e+00 
4.263631625124e+01 0.000000000000e+00 
4.290654023765e+01 0.000000000000e+00 
4.301871878753e+01 0.000000000000e+00 
4.327758503580e+01 0.000000000000e+00 
4.339729729817e+01 0.000000000000e+00 
4.364491938517e+01 0.000000000000e+00 
4.377209002352e+01 0.000000000000e+00 
4.400858039193e+01 0.000000000000e+00 
4.414313482166e+01 0.000000000000e+00 
4.436860478711e+01 0.000000000000e+00 
4.451046917104e+01 0.000000000000e+00 
4.472502893922e+01 0.000000000000e+00 
4.487413017780e+01 0.000000000000e+00 
4.507788885108e+01 0.000000000000e+00 
4.523415457298e+01 0.000000000000e+00 
4.542722016456e+01 0.000000000000e+00 
4.559057872509e+01 0.000000000000e+00 
4.577305816505e+01 0.000000000000e+00 
4.594343863695e+01 0.000000000000e+00 
4.611543778348e+01 0.000000000000e+00 
4.629276995042e+01 0.000000000000e+00 
4.645439360593e+01 0.000000000000e+00 
4.663860795091e+01 0.000000000000e+00 
4.678995987006e+01 0.000000000000e+00 
4.698098756935e+01 0.000000000000e+00 
4.712217047217e+01 0.000000000000e+00 
4.731994339180e+01 0.000000000000e+00 
4.745105896866e+01 0.000000000000e+00 
4.765550965593e+01 0.000000000000e+00 
4.777665858031e+01 0.000000000000e+00 
4.798772025804e+01 0.000000000000e+00 
4.809900219630e+01 0.000000000000e+00 
4.831660875452e+01 0.000000000000e+00 
4.841812237565e+01 0.000000000000e+00 
4.864220836618e+01 0.000000000000e+00 
4.873405135377e+01 0.000000000000e+00 
4.896455198216e+01 0.000000000000e+00 
4.904682104112e+01 0.000000000000e+00 
4.928367216151e+01 0.000000000000e+00 
4.935646303231e+01 0.000000000000e+00 
4.959960113963e+01 0.000000000000e+00 
4.966300860452e+01 0.000000000000e+00 
4.991237082698e+01 0.000000000000e+00 
4.996648871873e+01 0.000000000000e+00 
5.022201281817e+01 0.000000000000e+00 
5.026693403109e+01 0.000000000000e+00 
5.052855839039e+01 0.000000000000e+00 
5.056437489131e+01 0.000000000000e+00 
5.083203850459e+01 0.000000000000e+00 
5.085884134349e+01 0.000000000000e+00 
5.113248381696e+01 0.000000000000e+00 
5.115036313227e+01 0.000000000000e+00 
5.142992467717e+01 0.000000000000e+00 
5.143896970353e+01 0.000000000000e+00 
5.172439112936e+01 0.000000000000e+00 
5.172469020777e+01 0.000000000000e+00 
5.200755350600e+01 0.000000000000e+00 
5.201591291814e+01 0.000000000000e+00 
5.228758817028e+01 0.000000000000e+00 
5.230451948939e+01 0.000000000000e+00 
5.256482248691e+01 0.000000000000e+00 
5.259023999364e+01 0.000000000000e+00 
5.283928446213e+01 0.000000000000e+00 
5.287310329187e+01 0.000000000000e+00 
5.311100181986e+01 0.000000000000e+00 
5.315313795615e+01 0.000000000000e+00 
5.338000200478e+01 0.000000000000e+00 
5.343037227278e+01 0.000000000000e+00 
5.364631218781e+01 0.000000000000e+00 
5.370483424800e+01 0.000000000000e+00 
5.390995926642e+01 0.000000000000e+00 
5.397655160573e+01 0.000000000000e+00 
5.417096987267e+01 0.000000000000e+00 
5.424555179064e+01 0.000000000000e+00 
5.442937037325e+01 0.000000000000e+00 
5.451186197368e+01 0.000000000000e+00 
5.468518686969e+01 0.000000000000e+00 
5.477550905228e+01 0.000000000000e+00 
5.493844520088e+01 0.000000000000e+00 
5.503651965853e+01 0.000000000000e+00 
5.518917094847e+01 0.000000000000e+00 
5.529492015912e+01 0.000000000000e+00 
5.543738943924e+01 0.000000000000e+00 
5.555073665555e+01 0.000000000000e+00 
5.568312574507e+01 0.000000000000e+00 
5.580399498675e+01 0.000000000000e+00 
5.592640468801e+01 0.000000000000e+00 
5.605472073434e+01 0.000000000000e+00 
5.616725084261e+01 0.000000000000e+00 
5.630293922510e+01 0.000000000000e+00 
5.640568853570e+01 0.000000000000e+00 
5.654867553094e+01 0.000000000000e+00 
5.664174185131e+01 0.000000000000e+00 
5.679195447387e+01 0.000000000000e+00 
5.687543463285e+01 0.000000000000e+00 
5.703280062848e+01 0.000000000000e+00 
5.710679048542e+01 0.000000000000e+00 
5.727123832156e+01 0.000000000000e+00 
5.733583278045e+01 0.000000000000e+00 
5.750729163717e+01 0.000000000000e+00 
5.756258465260e+01 0.000000000000e+00 
5.774098441872e+01 0.000000000000e+00 
5.778706900712e+01 0.000000000000e+00 
5.797234027129e+01 0.000000000000e+00 
5.800930851911e+01 0.000000000000e+00 
5.820138256631e+01 0.000000000000e+00 
5.822932563563e+01 0.000000000000e+00 
5.842813443847e+01 0.000000000000e+00 
5.844714258014e+01 0.000000000000e+00 
5.865261879298e+01 0.000000000000e+00 
5.866278135439e+01 0.000000000000e+00 
5.887485830498e+01 0.000000000000e+00 
5.887626374024e+01 0.000000000000e+00 
5.908761130147e+01 0.000000000000e+00 
5.909487542150e+01 0.000000000000e+00 
5.929684538807e+01 0.000000000000e+00 
5.931269236600e+01 0.000000000000e+00 
5.950398713535e+01 0.000000000000e+00 
5.952833114025e+01 0.000000000000e+00 
5.970905746559e+01 0.000000000000e+00 
5.974181352611e+01 0.000000000000e+00 
5.991207709228e+01 0.000000000000e+00 
5.995316108733e+01 0.000000000000e+00 
6.011306652167e+01 0.000000000000e+00 
6.016239517394e+01 0.000000000000e+00 
6.031204605693e+01 0.000000000000e+00 
6.036953692122e+01 0.000000000000e+00 
6.050903579696e+01 0.000000000000e+00 
6.057460725145e+01 0.000000000000e+00 
6.070405564049e+01 0.000000000000e+00 
6.077762687814e+01 0.000000000000e+00 
6.089712528746e+01 0.000000000000e+00 
6.097861630753e+01 0.000000000000e+00 
6.108826423788e+01 0.000000000000e+00 
6.117759584280e+01 0.000000000000e+00 
6.127749179807e+01 0.000000000000e+00 
6.137458558283e+01 0.000000000000e+00 
6.146482708232e+01 0.000000000000e+00 
6.156960542635e+01 0.000000000000e+00 
6.165028901391e+01 0.000000000000e+00 
6.176267507333e+01 0.000000000000e+00 
6.183389632638e+01 0.000000000000e+00 
6.195381402375e+01 0.000000000000e+00 
6.201566756465e+01 0.000000000000e+00 
6.214304158393e+01 0.000000000000e+00 
6.219562108884e+01 0.000000000000e+00 
6.233037686818e+01 0.000000000000e+00 
6.237377507790e+01 0.000000000000e+00 
6.251583879978e+01 0.000000000000e+00 
6.255014752806e+01 0.000000000000e+00 
6.269944611225e+01 0.000000000000e+00 
6.272475625387e+01 0.000000000000e+00 
6.288121735052e+01 0.000000000000e+00 
6.289761889178e+01 0.000000000000e+00 
6.306117087470e+01 0.000000000000e+00 
6.306875290374e+01 0.000000000000e+00 
6.323817557541e+01 0.000000000000e+00 
6.323932486376e+01 0.000000000000e+00 
6.340590401974e+01 0.000000000000e+00 
6.341569731392e+01 0.000000000000e+00 
6.357195518035e+01 0.000000000000e+00 
6.359030603973e+01 0.000000000000e+00 
6.373634582978e+01 0.000000000000e+00 
6.376316867765e+01 0.000000000000e+00 
6.389909257280e+01 0.000000000000e+00 
6.393430268961e+01 0.000000000000e+00 
6.406021184723e+01 0.000000000000e+00 
6.410372536127e+01 0.000000000000e+00 
6.421971992985e+01 0.000000000000e+00 
6.427145380560e+01 0.000000000000e+00 
6.437763293174e+01 0.000000000000e+00 
6.443750496622e+01 0.000000000000e+00 
6.453396680172e+01 0.000000000000e+00 
6.460189561564e+01 0.000000000000e+00 
6.468873733462e+01 0.000000000000e+00 
6.476464235867e+01 0.000000000000e+00 
6.484196016410e+01 0.000000000000e+00 
6.492576163310e+01 0.000000000000e+00 
6.499365076574e+01 0.000000000000e+00 
6.508526971572e+01 0.000000000000e+00 
6.514382446027e+01 0.000000000000e+00 
6.524318271761e+01 0.000000000000e+00 
6.529249641658e+01 0.000000000000e+00 
6.539951658758e+01 0.000000000000e+00 
6.543968165220e+01 0.000000000000e+00 
6.555428712049e+01 0.000000000000e+00 
6.558539503632e+01 0.000000000000e+00 
6.570750994996e+01 0.000000000000e+00 
6.572965128749e+01 0.000000000000e+00 
6.585920055161e+01 0.000000000000e+00 
6.587246497410e+01 0.000000000000e+00 
6.600937424613e+01 0.000000000000e+00 
6.601385052513e+01 0.000000000000e+00 
6.615382222248e+01 0.000000000000e+00 
6.615804620245e+01 0.000000000000e+00 
6.629239420139e+01 0.000000000000e+00 
6.630523143807e+01 0.000000000000e+00 
6.642958046112e+01 0.000000000000e+00 
6.645094482218e+01 0.000000000000e+00 
6.656539485983e+01 0.000000000000e+00 
6.659520107336e+01 0.000000000000e+00 
6.669985111221e+01 0.000000000000e+00 
6.673801475997e+01 0.000000000000e+00 
6.683296280017e+01 0.000000000000e+00 
6.687940031100e+01 0.000000000000e+00 
6.696474337283e+01 0.000000000000e+00 
6.701937200834e+01 0.000000000000e+00 
6.709520614142e+01 0.000000000000e+00 
6.715794398726e+01 0.000000000000e+00 
6.722436428202e+01 0.000000000000e+00 
6.729513024699e+01 0.000000000000e+00 
6.735223084081e+01 0.000000000000e+00 
6.743094464569e+01 0.000000000000e+00 
6.747881873408e+01 0.000000000000e+00 
6.756540089807e+01 0.000000000000e+00 
6.760414074821e+01 0.000000000000e+00 
6.769851258603e+01 0.000000000000e+00 
6.772820954230e+01 0.000000000000e+00 
6.783029315869e+01 0.000000000000e+00 
6.785103764804e+01 0.000000000000e+00 
6.796075592729e+01 0.000000000000e+00 
6.797263747231e+01 0.000000000000e+00 
6.808991406789e+01 0.000000000000e+00 
6.809302129961e+01 0.000000000000e+00 
6.821220128934e+01 0.000000000000e+00 
6.821778062668e+01 0.000000000000e+00 
6.833018947829e+01 0.000000000000e+00 
6.834436851994e+01 0.000000000000e+00 
6.844699778565e+01 0.000000000000e+00 
6.846969053408e+01 0.000000000000e+00 
6.856263801018e+01 0.000000000000e+00 
6.859375932817e+01 0.000000000000e+00 
6.867712183260e+01 0.000000000000e+00 
6.871658743391e+01 0.000000000000e+00 
6.879046081533e+01 0.000000000000e+00 
6.883818725817e+01 0.000000000000e+00 
6.890266640749e+01 0.000000000000e+00 
6.895857108547e+01 0.000000000000e+00 
6.901374994447e+01 0.000000000000e+00 
6.907775107520e+01 0.000000000000e+00 
6.912372264511e+01 0.000000000000e+00 
6.919573926415e+01 0.000000000000e+00 
6.923259561914e+01 0.000000000000e+00 
6.931254757152e+01 0.000000000000e+00 
6.934037986419e+01 0.000000000000e+00 
6.942818779604e+01 0.000000000000e+00 
6.944708626538e+01 0.000000000000e+00 
6.954267161847e+01 0.000000000000e+00 
6.955272560285e+01 0.000000000000e+00 
6.965601060120e+01 0.000000000000e+00 
6.965730854852e+01 0.000000000000e+00 
6.976084566318e+01 0.000000000000e+00 
6.976821619335e+01 0.000000000000e+00 
6.986334740642e+01 0.000000000000e+00 
6.987929973033e+01 0.000000000000e+00 
6.996482413345e+01 0.000000000000e+00 
6.998927243097e+01 0.000000000000e+00 
7.006528609203e+01 0.000000000000e+00 
7.009814540501e+01 0.000000000000e+00 
7.016474343237e+01 0.000000000000e+00 
7.020592965005e+01 0.000000000000e+00 
7.026320620127e+01 0.000000000000e+00 
7.031263605125e+01 0.000000000000e+00 
7.036068434162e+01 0.000000000000e+00 
7.041827538871e+01 0.000000000000e+00 
7.045718769960e+01 0.000000000000e+00 
7.052285833439e+01 0.000000000000e+00 
7.055272602407e+01 0.000000000000e+00 
7.062639544905e+01 0.000000000000e+00 
7.064730896589e+01 0.000000000000e+00 
7.072889719229e+01 0.000000000000e+00 
7.074094607725e+01 0.000000000000e+00 
7.083037391932e+01 0.000000000000e+00 
7.083364681627e+01 0.000000000000e+00 
7.092542054885e+01 0.000000000000e+00 
7.093083587790e+01 0.000000000000e+00 
7.101627654532e+01 0.000000000000e+00 
7.103029321824e+01 0.000000000000e+00 
7.110622398235e+01 0.000000000000e+00 
7.112875598714e+01 0.000000000000e+00 
7.119527194481e+01 0.000000000000e+00 
7.122623412748e+01 0.000000000000e+00 
7.128342942758e+01 0.000000000000e+00 
7.132273748546e+01 0.000000000000e+00 
7.137070533473e+01 0.000000000000e+00 
7.141827580994e+01 0.000000000000e+00 
7.145710848141e+01 0.000000000000e+00 
7.151285875176e+01 0.000000000000e+00 
7.154264759811e+01 0.000000000000e+00 
7.160649586312e+01 0.000000000000e+00 
7.162733132464e+01 0.000000000000e+00 
7.169919660213e+01 0.000000000000e+00 
7.171116821190e+01 0.000000000000e+00 
7.179097033471e+01 0.000000000000e+00 
7.179416672883e+01 0.000000000000e+00 
7.187633526146e+01 0.000000000000e+00 
7.188182633118e+01 0.000000000000e+00 
7.195768210940e+01 0.000000000000e+00 
7.197177376822e+01 0.000000000000e+00 
7.203821549012e+01 0.000000000000e+00 
7.206082173068e+01 0.000000000000e+00 
7.211794353796e+01 0.000000000000e+00 
7.214897921344e+01 0.000000000000e+00 
7.219687430327e+01 0.000000000000e+00 
7.223625512060e+01 0.000000000000e+00 
7.227501575918e+01 0.000000000000e+00 
7.232265826727e+01 0.000000000000e+00 
7.235237580060e+01 0.000000000000e+00 
7.240819738397e+01 0.000000000000e+00 
7.242896224319e+01 0.000000000000e+00 
7.249288111050e+01 0.000000000000e+00 
7.250478282231e+01 0.000000000000e+00 
7.257671799776e+01 0.000000000000e+00 
7.257984519463e+01 0.000000000000e+00 
7.265415694229e+01 0.000000000000e+00 
7.265971651469e+01 0.000000000000e+00 
7.272772557439e+01 0.000000000000e+00 
7.274188504733e+01 0.000000000000e+00 
7.282323189527e+01 0.000000000000e+00 
7.290376527598e+01 0.000000000000e+00 
7.298349332383e+01 0.000000000000e+00 
7.306242408914e+01 0.000000000000e+00 
7.314056554505e+01 0.000000000000e+00 
7.321792558647e+01 0.000000000000e+00 
7.329451202905e+01 0.000000000000e+00 
7.337033260817e+01 0.000000000000e+00 
7.344539498049e+01 0.000000000000e+00 
7.351970672815e+01 0.000000000000e+00 
7.359327536026e+01 0.000000000000e+00 
 TITLE = "Profiles along polylines"
 VARIABLES = "DIST" "HEAD" 
 ZONE T="TIME=1.797693134862e+308"
3.772772557439e+01 3.228433545996e+01 
3.815055851866e+01 3.228349814006e+01 
3.856916313580e+01 3.228267657913e+01 
3.859327536026e+01 3.226632189538e+01 
3.898358170567e+01 3.228186996030e+01 
3.901610830452e+01 3.226546931524e+01 
3.939385608969e+01 3.228107762446e+01 
3.943471292166e+01 3.226463058525e+01 
3.980002773134e+01 3.228029900759e+01 
3.984913149154e+01 3.226380538160e+01 
4.020213765677e+01 3.227953360574e+01 
4.025940587556e+01 3.226299335379e+01 
4.060022648302e+01 3.227878095543e+01 
4.066557751721e+01 3.226219414373e+01 
4.099433442103e+01 3.227804062310e+01 
4.106768744263e+01 3.226140739588e+01 
4.138450127851e+01 3.227731219930e+01 
4.146577626888e+01 3.226063276253e+01 
4.177076646537e+01 3.227659529557e+01 
4.185988420690e+01 3.225986990645e+01 
4.215316900167e+01 3.227588954265e+01 
4.225005106438e+01 3.225911850198e+01 
4.253174751231e+01 3.227519458942e+01 
4.263631625124e+01 3.225837823551e+01 
4.290654023765e+01 3.227451010202e+01 
4.301871878753e+01 3.225764880541e+01 
4.327758503580e+01 3.227383576317e+01 
4.339729729817e+01 3.225692992190e+01 
4.364491938517e+01 3.227317127147e+01 
4.377209002352e+01 3.225622130662e+01 
4.400858039193e+01 3.227251634064e+01 
4.414313482166e+01 3.225552269235e+01 
4.436860478711e+01 3.227187069881e+01 
4.451046917104e+01 3.225483382251e+01 
4.472502893922e+01 3.227123408776e+01 
4.487413017780e+01 3.225415445082e+01 
4.507788885108e+01 3.227060626212e+01 
4.523415457298e+01 3.225348434082e+01 
4.542722016456e+01 3.226998698864e+01 
4.559057872509e+01 3.225282326546e+01 
4.577305816505e+01 3.226937604545e+01 
4.594343863695e+01 3.225217100668e+01 
4.611543778348e+01 3.226877322130e+01 
4.629276995042e+01 3.225152735500e+01 
4.645439360593e+01 3.226817831494e+01 
4.663860795091e+01 3.225089210914e+01 
4.678995987006e+01 3.226759113438e+01 
4.698098756935e+01 3.225026507556e+01 
4.712217047217e+01 3.226701149637e+01 
4.731994339180e+01 3.224964606816e+01 
4.745105896866e+01 3.226643922573e+01 
4.765550965593e+01 3.224903490785e+01 
4.777665858031e+01 3.226587415491e+01 
4.798772025804e+01 3.224843142224e+01 
4.809900219630e+01 3.226531612339e+01 
4.831660875452e+01 3.224783544528e+01 
4.841812237565e+01 3.226476497730e+01 
4.864220836618e+01 3.224724681698e+01 
4.873405135377e+01 3.226422056890e+01 
4.896455198216e+01 3.224666538303e+01 
4.904682104112e+01 3.226368275628e+01 
4.928367216151e+01 3.224609099459e+01 
4.935646303231e+01 3.226315140290e+01 
4.959960113963e+01 3.224552350796e+01 
4.966300860452e+01 3.226262637732e+01 
4.991237082698e+01 3.224496278436e+01 
4.996648871873e+01 3.226210755284e+01 
5.022201281817e+01 3.224440868966e+01 
5.026693403109e+01 3.226159480723e+01 
5.052855839039e+01 3.224386109415e+01 
5.056437489131e+01 3.226108802246e+01 
5.083203850459e+01 3.224331987234e+01 
5.085884134349e+01 3.226058708444e+01 
5.113248381696e+01 3.224278490276e+01 
5.115036313227e+01 3.226009188281e+01 
5.142992467717e+01 3.224225606771e+01 
5.143896970353e+01 3.225960231074e+01 
5.172439112936e+01 3.224173325318e+01 
5.172469020777e+01 3.225911826470e+01 
5.200755350600e+01 3.225863964430e+01 
5.201591291814e+01 3.224121634858e+01 
5.228758817028e+01 3.225816635213e+01 
5.230451948939e+01 3.224070524665e+01 
5.256482248691e+01 3.225769829359e+01 
5.259023999364e+01 3.224019984329e+01 
5.283928446213e+01 3.225723537677e+01 
5.287310329187e+01 3.223970003741e+01 
5.311100181986e+01 3.225677751230e+01 
5.315313795615e+01 3.223920573079e+01 
5.338000200478e+01 3.225632461323e+01 
5.343037227278e+01 3.223871682798e+01 
5.364631218781e+01 3.225587659493e+01 
5.370483424800e+01 3.223823323619e+01 
5.390995926642e+01 3.225543337496e+01 
5.397655160573e+01 3.223775486515e+01 
5.417096987267e+01 3.225499487301e+01 
5.424555179064e+01 3.223728162703e+01 
5.442937037325e+01 3.225456101074e+01 
5.451186197368e+01 3.223681343633e+01 
5.468518686969e+01 3.225413171179e+01 
5.477550905228e+01 3.223635020982e+01 
5.493844520088e+01 3.225370690161e+01 
5.503651965853e+01 3.223589186641e+01 
5.518917094847e+01 3.225328650747e+01 
5.529492015912e+01 3.223543832709e+01 
5.543738943924e+01 3.225287045830e+01 
5.555073665555e+01 3.223498951488e+01 
5.568312574507e+01 3.225245868471e+01 
5.580399498675e+01 3.223454535471e+01 
5.592640468801e+01 3.225205111888e+01 
5.605472073434e+01 3.223410577339e+01 
5.616725084261e+01 3.225164769450e+01 
5.630293922510e+01 3.223367069954e+01 
5.640568853570e+01 3.225124834678e+01 
5.654867553094e+01 3.223324006353e+01 
5.664174185131e+01 3.225085301230e+01 
5.679195447387e+01 3.223281379740e+01 
5.687543463285e+01 3.225046162906e+01 
5.703280062848e+01 3.223239183484e+01 
5.710679048542e+01 3.225007413639e+01 
5.727123832156e+01 3.223197411113e+01 
5.733583278045e+01 3.224969047488e+01 
5.750729163717e+01 3.223156056310e+01 
5.756258465260e+01 3.224931058641e+01 
5.774098441872e+01 3.223115112903e+01 
5.778706900712e+01 3.224893441408e+01 
5.797234027129e+01 3.223074574871e+01 
5.800930851911e+01 3.224856190215e+01 
5.820138256631e+01 3.223034436329e+01 
5.822932563563e+01 3.224819299607e+01 
5.842813443847e+01 3.222994691532e+01 
5.844714258014e+01 3.224782764239e+01 
5.865261879298e+01 3.222955334868e+01 
5.866278135439e+01 3.224746578877e+01 
5.887485830498e+01 3.222916360855e+01 
5.887626374024e+01 3.224710738393e+01 
5.908761130147e+01 3.224675237764e+01 
5.909487542150e+01 3.222877764137e+01 
5.929684538807e+01 3.224640072069e+01 
5.931269236600e+01 3.222839539482e+01 
5.950398713535e+01 3.224605236487e+01 
5.952833114025e+01 3.222801681781e+01 
5.970905746559e+01 3.224570726296e+01 
5.974181352611e+01 3.222764186038e+01 
5.991207709228e+01 3.224536536868e+01 
5.995316108733e+01 3.222727047375e+01 
6.011306652167e+01 3.224502663671e+01 
6.016239517394e+01 3.222690261024e+01 
6.031204605693e+01 3.224469102264e+01 
6.036953692122e+01 3.222653822330e+01 
6.050903579696e+01 3.224435848297e+01 
6.057460725145e+01 3.222617726741e+01 
6.070405564049e+01 3.224402897509e+01 
6.077762687814e+01 3.222581969812e+01 
6.089712528746e+01 3.224370245727e+01 
6.097861630753e+01 3.222546547201e+01 
6.108826423788e+01 3.224337888864e+01 
6.117759584280e+01 3.222511454665e+01 
6.127749179807e+01 3.224305822917e+01 
6.137458558283e+01 3.222476688058e+01 
6.146482708232e+01 3.224274043969e+01 
6.156960542635e+01 3.222442243332e+01 
6.165028901391e+01 3.224242548184e+01 
6.176267507333e+01 3.222408116532e+01 
6.183389632638e+01 3.224211331806e+01 
6.195381402375e+01 3.222374303794e+01 
6.201566756465e+01 3.224180391161e+01 
6.214304158393e+01 3.222340801345e+01 
6.219562108884e+01 3.224149722655e+01 
6.233037686818e+01 3.222307605501e+01 
6.237377507790e+01 3.224119322770e+01 
6.251583879978e+01 3.222274712660e+01 
6.255014752806e+01 3.224089188066e+01 
6.269944611225e+01 3.222242119309e+01 
6.272475625387e+01 3.224059315180e+01 
6.288121735052e+01 3.222209822014e+01 
6.289761889178e+01 3.224029700824e+01 
6.306117087470e+01 3.222177817423e+01 
6.306875290374e+01 3.224000341786e+01 
6.323817557541e+01 3.223971234926e+01 
6.323932486376e+01 3.222146102263e+01 
6.340590401974e+01 3.223942377178e+01 
6.341569731392e+01 3.222114673338e+01 
6.357195518035e+01 3.223913765550e+01 
6.359030603973e+01 3.222083527525e+01 
6.373634582978e+01 3.223885397118e+01 
6.376316867765e+01 3.222052661777e+01 
6.389909257280e+01 3.223857269033e+01 
6.393430268961e+01 3.222022073119e+01 
6.406021184723e+01 3.223829378513e+01 
6.410372536127e+01 3.221991758645e+01 
6.421971992985e+01 3.223801722847e+01 
6.427145380560e+01 3.221961715517e+01 
6.437763293174e+01 3.223774299393e+01 
6.443750496622e+01 3.221931940963e+01 
6.453396680172e+01 3.223747105576e+01 
6.460189561564e+01 3.221902432278e+01 
6.468873733462e+01 3.223720138889e+01 
6.476464235867e+01 3.221873186818e+01 
6.484196016410e+01 3.223693396891e+01 
6.492576163310e+01 3.221844202003e+01 
6.499365076574e+01 3.223666877208e+01 
6.508526971572e+01 3.221815475308e+01 
6.514382446027e+01 3.223640577531e+01 
6.524318271761e+01 3.221787004270e+01 
6.529249641658e+01 3.223614495614e+01 
6.539951658758e+01 3.221758786481e+01 
6.543968165220e+01 3.223588629276e+01 
6.555428712049e+01 3.221730819587e+01 
6.558539503632e+01 3.223562976396e+01 
6.570750994996e+01 3.221703101285e+01 
6.572965128749e+01 3.223537534918e+01 
6.585920055161e+01 3.221675629325e+01 
6.587246497410e+01 3.223512302846e+01 
6.600937424613e+01 3.221648401506e+01 
6.601385052513e+01 3.223487278243e+01 
6.615382222248e+01 3.223462459231e+01 
6.615804620245e+01 3.221621415674e+01 
6.629239420139e+01 3.223437843991e+01 
6.630523143807e+01 3.221594669719e+01 
6.642958046112e+01 3.223413430761e+01 
6.645094482218e+01 3.221568161575e+01 
6.656539485983e+01 3.223389217834e+01 
6.659520107336e+01 3.221541889218e+01 
6.669985111221e+01 3.223365203558e+01 
6.673801475997e+01 3.221515850666e+01 
6.683296280017e+01 3.223341386334e+01 
6.687940031100e+01 3.221490043973e+01 
6.696474337283e+01 3.223317764615e+01 
6.701937200834e+01 3.221464467230e+01 
6.709520614142e+01 3.223294336906e+01 
6.715794398726e+01 3.221439118562e+01 
6.722436428202e+01 3.223271101760e+01 
6.729513024699e+01 3.221413996129e+01 
6.735223084081e+01 3.223248057778e+01 
6.743094464569e+01 3.221389098121e+01 
6.747881873408e+01 3.223225203609e+01 
6.756540089807e+01 3.221364422758e+01 
6.760414074821e+01 3.223202537944e+01 
6.769851258603e+01 3.221339968286e+01 
6.772820954230e+01 3.223180059520e+01 
6.783029315869e+01 3.221315732980e+01 
6.785103764804e+01 3.223157767112e+01 
6.796075592729e+01 3.221291715136e+01 
6.797263747231e+01 3.223135659537e+01 
6.808991406789e+01 3.221267913076e+01 
6.809302129961e+01 3.223113735648e+01 
6.821220128934e+01 3.223091994334e+01 
6.821778062668e+01 3.221244325141e+01 
6.833018947829e+01 3.223070434518e+01 
6.834436851994e+01 3.221220949694e+01 
6.844699778565e+01 3.223049055153e+01 
6.846969053408e+01 3.221197785114e+01 
6.856263801018e+01 3.223027855223e+01 
6.859375932817e+01 3.221174829798e+01 
6.867712183260e+01 3.223006833735e+01 
6.871658743391e+01 3.221152082157e+01 
6.879046081533e+01 3.222985989725e+01 
6.883818725817e+01 3.221129540618e+01 
6.890266640749e+01 3.222965322248e+01 
6.895857108547e+01 3.221107203620e+01 
6.901374994447e+01 3.222944830377e+01 
6.907775107520e+01 3.221085069611e+01 
6.912372264511e+01 3.222924513206e+01 
6.919573926415e+01 3.221063137053e+01 
6.923259561914e+01 3.222904369837e+01 
6.931254757152e+01 3.221041404417e+01 
6.934037986419e+01 3.222884399389e+01 
6.942818779604e+01 3.221019870179e+01 
6.944708626538e+01 3.222864600986e+01 
6.954267161847e+01 3.220998532825e+01 
6.955272560285e+01 3.222844973759e+01 
6.965601060120e+01 3.220977390848e+01 
6.965730854852e+01 3.222825516838e+01 
6.976084566318e+01 3.222806229357e+01 
6.976821619335e+01 3.220956442746e+01 
6.986334740642e+01 3.222787110444e+01 
6.987929973033e+01 3.220935687021e+01 
6.996482413345e+01 3.222768159220e+01 
6.998927243097e+01 3.220915122182e+01 
7.006528609203e+01 3.222749374796e+01 
7.009814540501e+01 3.220894746741e+01 
7.016474343237e+01 3.222730756271e+01 
7.020592965005e+01 3.220874559213e+01 
7.026320620127e+01 3.222712302724e+01 
7.031263605125e+01 3.220854558121e+01 
7.036068434162e+01 3.222694013220e+01 
7.041827538871e+01 3.220834741986e+01 
7.045718769960e+01 3.222675886794e+01 
7.052285833439e+01 3.220815109336e+01 
7.055272602407e+01 3.222657922460e+01 
7.062639544905e+01 3.220795658703e+01 
7.064730896589e+01 3.222640119199e+01 
7.072889719229e+01 3.220776388622e+01 
7.074094607725e+01 3.222622475958e+01 
7.083037391932e+01 3.220757297633e+01 
7.083364681627e+01 3.222604991651e+01 
7.092542054885e+01 3.222587665147e+01 
7.093083587790e+01 3.220738384282e+01 
7.101627654532e+01 3.222570495274e+01 
7.103029321824e+01 3.220719647118e+01 
7.110622398235e+01 3.222553480813e+01 
7.112875598714e+01 3.220701084699e+01 
7.119527194481e+01 3.222536620495e+01 
7.122623412748e+01 3.220682695590e+01 
7.128342942758e+01 3.222519912996e+01 
7.132273748546e+01 3.220664478363e+01 
7.137070533473e+01 3.222503356937e+01 
7.141827580994e+01 3.220646431601e+01 
7.145710848141e+01 3.222486950879e+01 
7.151285875176e+01 3.220628553896e+01 
7.154264759811e+01 3.222470693317e+01 
7.160649586312e+01 3.220610843854e+01 
7.162733132464e+01 3.222454582681e+01 
7.169919660213e+01 3.220593300095e+01 
7.171116821190e+01 3.222438617334e+01 
7.179097033471e+01 3.220575921250e+01 
7.179416672883e+01 3.222422795564e+01 
7.187633526146e+01 3.222407115585e+01 
7.188182633118e+01 3.220558705972e+01 
7.195768210940e+01 3.222391575532e+01 
7.197177376822e+01 3.220541652930e+01 
7.203821549012e+01 3.222376173460e+01 
7.206082173068e+01 3.220524760814e+01 
7.211794353796e+01 3.222360907342e+01 
7.214897921344e+01 3.220508028339e+01 
7.219687430327e+01 3.222345775063e+01 
7.223625512060e+01 3.220491454241e+01 
7.227501575918e+01 3.222330774423e+01 
7.232265826727e+01 3.220475037287e+01 
7.235237580060e+01 3.222315903129e+01 
7.240819738397e+01 3.220458776270e+01 
7.242896224319e+01 3.222301158798e+01 
7.249288111050e+01 3.220442670018e+01 
7.250478282231e+01 3.222286538951e+01 
7.257671799776e+01 3.220426717391e+01 
7.257984519463e+01 3.222272041016e+01 
7.265415694229e+01 3.222257662321e+01 
7.265971651469e+01 3.220410917288e+01 
7.272772557439e+01 3.222243400096e+01 
7.274188504733e+01 3.220395268645e+01 
7.282323189527e+01 3.220379770443e+01 
7.290376527598e+01 3.220364421705e+01 
7.298349332383e+01 3.220349221504e+01 
7.306242408914e+01 3.220334168962e+01 
7.314056554505e+01 3.220319263255e+01 
7.321792558647e+01 3.220304503615e+01 
7.329451202905e+01 3.220289889331e+01 
7.337033260817e+01 3.220275419756e+01 
7.344539498049e+01 3.220261094307e+01 
7.351970672815e+01 3.220246912468e+01 
7.359327536026e+01 3.220232873791e+01 
