 TITLE = "Profiles along polylines"
 VARIABLES = "DIST" "HEAD" 
 ZONE T="TIME=0.000000000000e+00"
4.688565168781e-01 0.000000000000e+00 
4.919334148929e-01 0.000000000000e+00 
5.150801209236e-01 0.000000000000e+00 
5.382968460268e-01 0.000000000000e+00 
8.916894611435e-01 0.000000000000e+00 
9.147663591583e-01 0.000000000000e+00 
9.379130651891e-01 0.000000000000e+00 
9.611297902923e-01 0.000000000000e+00 
1.310294078283e+00 0.000000000000e+00 
1.333370976297e+00 0.000000000000e+00 
1.356517682328e+00 0.000000000000e+00 
1.379734407431e+00 0.000000000000e+00 
1.724712648152e+00 0.000000000000e+00 
1.747789546167e+00 0.000000000000e+00 
1.770936252198e+00 0.000000000000e+00 
1.794152977301e+00 0.000000000000e+00 
2.134987032171e+00 0.000000000000e+00 
2.158063930186e+00 0.000000000000e+00 
2.181210636217e+00 0.000000000000e+00 
2.204427361320e+00 0.000000000000e+00 
2.541158673824e+00 0.000000000000e+00 
2.564235571839e+00 0.000000000000e+00 
2.587382277870e+00 0.000000000000e+00 
2.610599002973e+00 0.000000000000e+00 
2.943268599246e+00 0.000000000000e+00 
2.966345497261e+00 0.000000000000e+00 
2.989492203291e+00 0.000000000000e+00 
3.012708928395e+00 0.000000000000e+00 
3.341357425494e+00 0.000000000000e+00 
3.364434323509e+00 0.000000000000e+00 
3.387581029540e+00 0.000000000000e+00 
3.410797754643e+00 0.000000000000e+00 
3.735465363507e+00 0.000000000000e+00 
3.758542261522e+00 0.000000000000e+00 
3.781688967553e+00 0.000000000000e+00 
3.804905692656e+00 0.000000000000e+00 
4.125632220988e+00 0.000000000000e+00 
4.148709119003e+00 0.000000000000e+00 
4.171855825034e+00 0.000000000000e+00 
4.195072550137e+00 0.000000000000e+00 
4.511897407848e+00 0.000000000000e+00 
4.534974305863e+00 0.000000000000e+00 
4.558121011893e+00 0.000000000000e+00 
4.581337736997e+00 0.000000000000e+00 
4.894299944140e+00 0.000000000000e+00 
4.917376842154e+00 0.000000000000e+00 
4.940523548185e+00 0.000000000000e+00 
4.963740273288e+00 0.000000000000e+00 
5.272878454778e+00 0.000000000000e+00 
5.295955352793e+00 0.000000000000e+00 
5.319102058823e+00 0.000000000000e+00 
5.342318783927e+00 0.000000000000e+00 
5.647671180122e+00 0.000000000000e+00 
5.670748078137e+00 0.000000000000e+00 
5.693894784168e+00 0.000000000000e+00 
5.717111509271e+00 0.000000000000e+00 
6.018715978267e+00 0.000000000000e+00 
6.041792876282e+00 0.000000000000e+00 
6.064939582313e+00 0.000000000000e+00 
6.088156307416e+00 0.000000000000e+00 
6.386050327639e+00 0.000000000000e+00 
6.409127225654e+00 0.000000000000e+00 
6.432273931685e+00 0.000000000000e+00 
6.455490656788e+00 0.000000000000e+00 
6.749711334401e+00 0.000000000000e+00 
6.772788232415e+00 0.000000000000e+00 
6.795934938446e+00 0.000000000000e+00 
6.819151663549e+00 0.000000000000e+00 
7.109735729577e+00 0.000000000000e+00 
7.132812627592e+00 0.000000000000e+00 
7.155959333622e+00 0.000000000000e+00 
7.179176058726e+00 0.000000000000e+00 
7.466159881688e+00 0.000000000000e+00 
7.489236779703e+00 0.000000000000e+00 
7.512383485734e+00 0.000000000000e+00 
7.535600210837e+00 0.000000000000e+00 
7.819019793548e+00 0.000000000000e+00 
7.842096691563e+00 0.000000000000e+00 
7.865243397594e+00 0.000000000000e+00 
7.888460122697e+00 0.000000000000e+00 
8.168351107020e+00 0.000000000000e+00 
8.191428005035e+00 0.000000000000e+00 
8.214574711066e+00 0.000000000000e+00 
8.237791436169e+00 0.000000000000e+00 
8.514189107511e+00 0.000000000000e+00 
8.537266005526e+00 0.000000000000e+00 
8.560412711557e+00 0.000000000000e+00 
8.583629436660e+00 0.000000000000e+00 
8.856568725946e+00 0.000000000000e+00 
8.879645623961e+00 0.000000000000e+00 
8.902792329991e+00 0.000000000000e+00 
8.926009055095e+00 0.000000000000e+00 
9.195524548391e+00 0.000000000000e+00 
9.218601446406e+00 0.000000000000e+00 
9.241748152437e+00 0.000000000000e+00 
9.264964877540e+00 0.000000000000e+00 
9.531090812523e+00 0.000000000000e+00 
9.554167710538e+00 0.000000000000e+00 
9.577314416569e+00 0.000000000000e+00 
9.600531141672e+00 0.000000000000e+00 
9.863301414630e+00 0.000000000000e+00 
9.886378312645e+00 0.000000000000e+00 
9.909525018675e+00 0.000000000000e+00 
9.932741743779e+00 0.000000000000e+00 
1.019218991111e+01 0.000000000000e+00 
1.021526680913e+01 0.000000000000e+00 
1.023841351516e+01 0.000000000000e+00 
1.026163024026e+01 0.000000000000e+00 
1.051778952277e+01 0.000000000000e+00 
1.054086642078e+01 0.000000000000e+00 
1.056401312681e+01 0.000000000000e+00 
1.058722985192e+01 0.000000000000e+00 
1.084013313875e+01 0.000000000000e+00 
1.086321003677e+01 0.000000000000e+00 
1.088635674280e+01 0.000000000000e+00 
1.090957346790e+01 0.000000000000e+00 
1.115925331810e+01 0.000000000000e+00 
1.118233021611e+01 0.000000000000e+00 
1.120547692214e+01 0.000000000000e+00 
1.122869364725e+01 0.000000000000e+00 
1.147518229622e+01 0.000000000000e+00 
1.149825919423e+01 0.000000000000e+00 
1.152140590026e+01 0.000000000000e+00 
1.154462262536e+01 0.000000000000e+00 
1.178795198357e+01 0.000000000000e+00 
1.181102888158e+01 0.000000000000e+00 
1.183417558761e+01 0.000000000000e+00 
1.185739231271e+01 0.000000000000e+00 
1.209759397475e+01 0.000000000000e+00 
1.212067087277e+01 0.000000000000e+00 
1.214381757880e+01 0.000000000000e+00 
1.216703430390e+01 0.000000000000e+00 
1.240413954697e+01 0.000000000000e+00 
1.242721644499e+01 0.000000000000e+00 
1.245036315102e+01 0.000000000000e+00 
1.247357987612e+01 0.000000000000e+00 
1.270761966117e+01 0.000000000000e+00 
1.273069655919e+01 0.000000000000e+00 
1.275384326522e+01 0.000000000000e+00 
1.277705999032e+01 0.000000000000e+00 
1.300806497354e+01 0.000000000000e+00 
1.303114187155e+01 0.000000000000e+00 
1.305428857758e+01 0.000000000000e+00 
1.307750530269e+01 0.000000000000e+00 
1.330550583375e+01 0.000000000000e+00 
1.332858273177e+01 0.000000000000e+00 
1.335172943780e+01 0.000000000000e+00 
1.337494616290e+01 0.000000000000e+00 
1.359997228594e+01 0.000000000000e+00 
1.362304918395e+01 0.000000000000e+00 
1.364619588998e+01 0.000000000000e+00 
1.366941261508e+01 0.000000000000e+00 
1.389149407471e+01 0.000000000000e+00 
1.391457097273e+01 0.000000000000e+00 
1.393771767876e+01 0.000000000000e+00 
1.396093440386e+01 0.000000000000e+00 
1.418010064597e+01 0.000000000000e+00 
1.420317754398e+01 0.000000000000e+00 
1.422632425002e+01 0.000000000000e+00 
1.424954097512e+01 0.000000000000e+00 
1.446582115021e+01 0.000000000000e+00 
1.448889804823e+01 0.000000000000e+00 
1.451204475426e+01 0.000000000000e+00 
1.453526147936e+01 0.000000000000e+00 
1.474868444844e+01 0.000000000000e+00 
1.477176134645e+01 0.000000000000e+00 
1.479490805249e+01 0.000000000000e+00 
1.481812477759e+01 0.000000000000e+00 
1.502871911272e+01 0.000000000000e+00 
1.505179601073e+01 0.000000000000e+00 
1.507494271676e+01 0.000000000000e+00 
1.509815944187e+01 0.000000000000e+00 
1.530595342935e+01 0.000000000000e+00 
1.532903032737e+01 0.000000000000e+00 
1.535217703340e+01 0.000000000000e+00 
1.537539375850e+01 0.000000000000e+00 
1.558041540457e+01 0.000000000000e+00 
1.560349230258e+01 0.000000000000e+00 
1.562663900861e+01 0.000000000000e+00 
1.564985573372e+01 0.000000000000e+00 
1.585213276230e+01 0.000000000000e+00 
1.587520966031e+01 0.000000000000e+00 
1.589835636634e+01 0.000000000000e+00 
1.592157309145e+01 0.000000000000e+00 
1.612113294721e+01 0.000000000000e+00 
1.614420984522e+01 0.000000000000e+00 
1.616735655126e+01 0.000000000000e+00 
1.619057327636e+01 0.000000000000e+00 
1.638744313024e+01 0.000000000000e+00 
1.641052002826e+01 0.000000000000e+00 
1.643366673429e+01 0.000000000000e+00 
1.645688345939e+01 0.000000000000e+00 
1.665109020885e+01 0.000000000000e+00 
1.667416710686e+01 0.000000000000e+00 
1.669731381290e+01 0.000000000000e+00 
1.672053053800e+01 0.000000000000e+00 
1.691210081510e+01 0.000000000000e+00 
1.693517771312e+01 0.000000000000e+00 
1.695832441915e+01 0.000000000000e+00 
1.698154114425e+01 0.000000000000e+00 
1.717050131569e+01 0.000000000000e+00 
1.719357821370e+01 0.000000000000e+00 
1.721672491973e+01 0.000000000000e+00 
1.723994164483e+01 0.000000000000e+00 
1.742631781212e+01 0.000000000000e+00 
1.744939471013e+01 0.000000000000e+00 
1.747254141616e+01 0.000000000000e+00 
1.749575814127e+01 0.000000000000e+00 
1.767957614331e+01 0.000000000000e+00 
1.770265304133e+01 0.000000000000e+00 
1.772579974736e+01 0.000000000000e+00 
1.774901647246e+01 0.000000000000e+00 
1.793030189090e+01 0.000000000000e+00 
1.795337878892e+01 0.000000000000e+00 
1.797652549495e+01 0.000000000000e+00 
1.799974222005e+01 0.000000000000e+00 
1.817852038167e+01 0.000000000000e+00 
1.820159727968e+01 0.000000000000e+00 
1.822474398571e+01 0.000000000000e+00 
1.824796071082e+01 0.000000000000e+00 
1.842425668750e+01 0.000000000000e+00 
1.844733358552e+01 0.000000000000e+00 
1.847048029155e+01 0.000000000000e+00 
1.849369701665e+01 0.000000000000e+00 
1.866753563044e+01 0.000000000000e+00 
1.869061252845e+01 0.000000000000e+00 
1.871375923448e+01 0.000000000000e+00 
1.873697595959e+01 0.000000000000e+00 
1.890838178504e+01 0.000000000000e+00 
1.893145868306e+01 0.000000000000e+00 
1.895460538909e+01 0.000000000000e+00 
1.897782211419e+01 0.000000000000e+00 
1.914681947813e+01 0.000000000000e+00 
1.916989637615e+01 0.000000000000e+00 
1.919304308218e+01 0.000000000000e+00 
1.921625980728e+01 0.000000000000e+00 
1.938287279374e+01 0.000000000000e+00 
1.940594969176e+01 0.000000000000e+00 
1.942909639779e+01 0.000000000000e+00 
1.945231312289e+01 0.000000000000e+00 
1.961656557529e+01 0.000000000000e+00 
1.963964247330e+01 0.000000000000e+00 
1.966278917933e+01 0.000000000000e+00 
1.968600590444e+01 0.000000000000e+00 
1.984792142786e+01 0.000000000000e+00 
1.987099832588e+01 0.000000000000e+00 
1.989414503191e+01 0.000000000000e+00 
1.991736175701e+01 0.000000000000e+00 
2.007696372289e+01 0.000000000000e+00 
2.010004062090e+01 0.000000000000e+00 
2.012318732693e+01 0.000000000000e+00 
2.014640405204e+01 0.000000000000e+00 
2.030371559504e+01 0.000000000000e+00 
2.032679249306e+01 0.000000000000e+00 
2.034993919909e+01 0.000000000000e+00 
2.037315592419e+01 0.000000000000e+00 
2.052819994956e+01 0.000000000000e+00 
2.055127684757e+01 0.000000000000e+00 
2.057442355360e+01 0.000000000000e+00 
2.059764027870e+01 0.000000000000e+00 
2.075043946155e+01 0.000000000000e+00 
2.077351635957e+01 0.000000000000e+00 
2.079666306560e+01 0.000000000000e+00 
2.081987979070e+01 0.000000000000e+00 
2.097045657808e+01 0.000000000000e+00 
2.099353347609e+01 0.000000000000e+00 
2.101668018212e+01 0.000000000000e+00 
2.103989690722e+01 0.000000000000e+00 
2.118827352258e+01 0.000000000000e+00 
2.121135042059e+01 0.000000000000e+00 
2.123449712663e+01 0.000000000000e+00 
2.125771385173e+01 0.000000000000e+00 
2.140391229683e+01 0.000000000000e+00 
2.142698919485e+01 0.000000000000e+00 
2.145013590088e+01 0.000000000000e+00 
2.147335262598e+01 0.000000000000e+00 
2.161739468269e+01 0.000000000000e+00 
2.164047158070e+01 0.000000000000e+00 
2.166361828673e+01 0.000000000000e+00 
2.168683501183e+01 0.000000000000e+00 
2.182874224391e+01 0.000000000000e+00 
2.185181914193e+01 0.000000000000e+00 
2.187496584796e+01 0.000000000000e+00 
2.189818257306e+01 0.000000000000e+00 
2.203797633052e+01 0.000000000000e+00 
2.206105322853e+01 0.000000000000e+00 
2.208419993456e+01 0.000000000000e+00 
2.210741665966e+01 0.000000000000e+00 
2.224511807780e+01 0.000000000000e+00 
2.226819497581e+01 0.000000000000e+00 
2.229134168184e+01 0.000000000000e+00 
2.231455840694e+01 0.000000000000e+00 
2.245018840803e+01 0.000000000000e+00 
2.247326530605e+01 0.000000000000e+00 
2.249641201208e+01 0.000000000000e+00 
2.251962873718e+01 0.000000000000e+00 
2.265320803472e+01 0.000000000000e+00 
2.267628493274e+01 0.000000000000e+00 
2.269943163877e+01 0.000000000000e+00 
2.272264836387e+01 0.000000000000e+00 
2.285419746412e+01 0.000000000000e+00 
2.287727436213e+01 0.000000000000e+00 
2.290042106816e+01 0.000000000000e+00 
2.292363779326e+01 0.000000000000e+00 
2.305317699938e+01 0.000000000000e+00 
2.307625389740e+01 0.000000000000e+00 
2.309940060343e+01 0.000000000000e+00 
2.312261732853e+01 0.000000000000e+00 
2.325016673941e+01 0.000000000000e+00 
2.327324363743e+01 0.000000000000e+00 
2.329639034346e+01 0.000000000000e+00 
2.331960706856e+01 0.000000000000e+00 
2.344518658294e+01 0.000000000000e+00 
2.346826348095e+01 0.000000000000e+00 
2.349141018698e+01 0.000000000000e+00 
2.351462691209e+01 0.000000000000e+00 
2.363825622992e+01 0.000000000000e+00 
2.366133312793e+01 0.000000000000e+00 
2.368447983396e+01 0.000000000000e+00 
2.370769655906e+01 0.000000000000e+00 
2.382939518034e+01 0.000000000000e+00 
2.385247207835e+01 0.000000000000e+00 
2.387561878438e+01 0.000000000000e+00 
2.389883550949e+01 0.000000000000e+00 
2.401862274052e+01 0.000000000000e+00 
2.404169963854e+01 0.000000000000e+00 
2.406484634457e+01 0.000000000000e+00 
2.408806306967e+01 0.000000000000e+00 
2.420595802477e+01 0.000000000000e+00 
2.422903492279e+01 0.000000000000e+00 
2.425218162882e+01 0.000000000000e+00 
2.427539835392e+01 0.000000000000e+00 
2.439141995637e+01 0.000000000000e+00 
2.441449685438e+01 0.000000000000e+00 
2.443764356041e+01 0.000000000000e+00 
2.446086028552e+01 0.000000000000e+00 
2.457502726884e+01 0.000000000000e+00 
2.459810416685e+01 0.000000000000e+00 
2.462125087288e+01 0.000000000000e+00 
2.464446759799e+01 0.000000000000e+00 
2.475679850711e+01 0.000000000000e+00 
2.477987540512e+01 0.000000000000e+00 
2.480302211115e+01 0.000000000000e+00 
2.482623883626e+01 0.000000000000e+00 
2.493675203129e+01 0.000000000000e+00 
2.495982892931e+01 0.000000000000e+00 
2.498297563534e+01 0.000000000000e+00 
2.500619236044e+01 0.000000000000e+00 
2.511490602035e+01 0.000000000000e+00 
2.513798291837e+01 0.000000000000e+00 
2.516112962440e+01 0.000000000000e+00 
2.518434634950e+01 0.000000000000e+00 
2.529127847052e+01 0.000000000000e+00 
2.531435536853e+01 0.000000000000e+00 
2.533750207456e+01 0.000000000000e+00 
2.536071879967e+01 0.000000000000e+00 
2.546588719632e+01 0.000000000000e+00 
2.548896409434e+01 0.000000000000e+00 
2.551211080037e+01 0.000000000000e+00 
2.553532752547e+01 0.000000000000e+00 
2.563874983424e+01 0.000000000000e+00 
2.566182673226e+01 0.000000000000e+00 
2.568497343829e+01 0.000000000000e+00 
2.570819016339e+01 0.000000000000e+00 
2.580988384620e+01 0.000000000000e+00 
2.583296074421e+01 0.000000000000e+00 
2.585610745024e+01 0.000000000000e+00 
2.587932417535e+01 0.000000000000e+00 
2.597930651787e+01 0.000000000000e+00 
2.600238341588e+01 0.000000000000e+00 
2.602553012191e+01 0.000000000000e+00 
2.604874684702e+01 0.000000000000e+00 
2.614703496220e+01 0.000000000000e+00 
2.617011186021e+01 0.000000000000e+00 
2.619325856624e+01 0.000000000000e+00 
2.621647529135e+01 0.000000000000e+00 
2.631308612282e+01 0.000000000000e+00 
2.633616302083e+01 0.000000000000e+00 
2.635930972686e+01 0.000000000000e+00 
2.638252645196e+01 0.000000000000e+00 
2.647747677224e+01 0.000000000000e+00 
2.650055367025e+01 0.000000000000e+00 
2.652370037629e+01 0.000000000000e+00 
2.654691710139e+01 0.000000000000e+00 
2.664022351526e+01 0.000000000000e+00 
2.666330041328e+01 0.000000000000e+00 
2.668644711931e+01 0.000000000000e+00 
2.670966384441e+01 0.000000000000e+00 
2.680134278970e+01 0.000000000000e+00 
2.682441968771e+01 0.000000000000e+00 
2.684756639374e+01 0.000000000000e+00 
2.687078311884e+01 0.000000000000e+00 
2.696085087231e+01 0.000000000000e+00 
2.698392777033e+01 0.000000000000e+00 
2.700707447636e+01 0.000000000000e+00 
2.703029120146e+01 0.000000000000e+00 
2.711876387421e+01 0.000000000000e+00 
2.714184077222e+01 0.000000000000e+00 
2.716498747825e+01 0.000000000000e+00 
2.718820420336e+01 0.000000000000e+00 
2.727509774418e+01 0.000000000000e+00 
2.729817464220e+01 0.000000000000e+00 
2.732132134823e+01 0.000000000000e+00 
2.734453807333e+01 0.000000000000e+00 
2.742986827709e+01 0.000000000000e+00 
2.745294517511e+01 0.000000000000e+00 
2.747609188114e+01 0.000000000000e+00 
2.749930860624e+01 0.000000000000e+00 
2.758309110656e+01 0.000000000000e+00 
2.760616800458e+01 0.000000000000e+00 
2.762931471061e+01 0.000000000000e+00 
2.765253143571e+01 0.000000000000e+00 
2.773478170821e+01 0.000000000000e+00 
2.775785860622e+01 0.000000000000e+00 
2.778100531225e+01 0.000000000000e+00 
2.780422203736e+01 0.000000000000e+00 
2.788495540273e+01 0.000000000000e+00 
2.790803230075e+01 0.000000000000e+00 
2.793117900678e+01 0.000000000000e+00 
2.795439573188e+01 0.000000000000e+00 
2.803362735905e+01 0.000000000000e+00 
2.805670425706e+01 0.000000000000e+00 
2.807985096309e+01 0.000000000000e+00 
2.810306768820e+01 0.000000000000e+00 
2.818081259467e+01 0.000000000000e+00 
2.820388949268e+01 0.000000000000e+00 
2.822703619871e+01 0.000000000000e+00 
2.825025292382e+01 0.000000000000e+00 
2.832652597879e+01 0.000000000000e+00 
2.834960287680e+01 0.000000000000e+00 
2.837274958283e+01 0.000000000000e+00 
2.839596630793e+01 0.000000000000e+00 
2.847078222996e+01 0.000000000000e+00 
2.849385912797e+01 0.000000000000e+00 
2.851700583400e+01 0.000000000000e+00 
2.854022255911e+01 0.000000000000e+00 
2.861359591657e+01 0.000000000000e+00 
2.863667281459e+01 0.000000000000e+00 
2.865981952062e+01 0.000000000000e+00 
2.868303624572e+01 0.000000000000e+00 
2.875498146760e+01 0.000000000000e+00 
2.877805836561e+01 0.000000000000e+00 
2.880120507164e+01 0.000000000000e+00 
2.882442179675e+01 0.000000000000e+00 
2.889495316495e+01 0.000000000000e+00 
2.891803006296e+01 0.000000000000e+00 
2.894117676899e+01 0.000000000000e+00 
2.896439349410e+01 0.000000000000e+00 
2.903352514386e+01 0.000000000000e+00 
2.905660204188e+01 0.000000000000e+00 
2.907974874791e+01 0.000000000000e+00 
2.910296547301e+01 0.000000000000e+00 
2.917071140360e+01 0.000000000000e+00 
2.919378830161e+01 0.000000000000e+00 
2.921693500764e+01 0.000000000000e+00 
2.924015173274e+01 0.000000000000e+00 
2.930652580230e+01 0.000000000000e+00 
2.932960270031e+01 0.000000000000e+00 
2.935274940634e+01 0.000000000000e+00 
2.937596613145e+01 0.000000000000e+00 
2.944098205468e+01 0.000000000000e+00 
2.946405895269e+01 0.000000000000e+00 
2.948720565872e+01 0.000000000000e+00 
2.951042238383e+01 0.000000000000e+00 
2.957409374264e+01 0.000000000000e+00 
2.959717064065e+01 0.000000000000e+00 
2.962031734668e+01 0.000000000000e+00 
2.964353407179e+01 0.000000000000e+00 
2.970587431530e+01 0.000000000000e+00 
2.972895121331e+01 0.000000000000e+00 
2.975209791935e+01 0.000000000000e+00 
2.977531464445e+01 0.000000000000e+00 
2.983633708390e+01 0.000000000000e+00 
2.985941398191e+01 0.000000000000e+00 
2.988256068794e+01 0.000000000000e+00 
2.990577741305e+01 0.000000000000e+00 
2.996549522450e+01 0.000000000000e+00 
2.998857212251e+01 0.000000000000e+00 
3.001171882854e+01 0.000000000000e+00 
3.003493555364e+01 0.000000000000e+00 
3.009336178329e+01 0.000000000000e+00 
3.011643868130e+01 0.000000000000e+00 
3.013958538733e+01 0.000000000000e+00 
3.016280211243e+01 0.000000000000e+00 
3.021994967655e+01 0.000000000000e+00 
3.024302657456e+01 0.000000000000e+00 
3.026617328060e+01 0.000000000000e+00 
3.028939000570e+01 0.000000000000e+00 
3.034527169069e+01 0.000000000000e+00 
3.036834858870e+01 0.000000000000e+00 
3.039149529473e+01 0.000000000000e+00 
3.041471201984e+01 0.000000000000e+00 
3.046934048478e+01 0.000000000000e+00 
3.049241738279e+01 0.000000000000e+00 
3.051556408882e+01 0.000000000000e+00 
3.053878081393e+01 0.000000000000e+00 
3.059216859052e+01 0.000000000000e+00 
3.061524548854e+01 0.000000000000e+00 
3.063839219457e+01 0.000000000000e+00 
3.066160891967e+01 0.000000000000e+00 
3.071376841478e+01 0.000000000000e+00 
3.073684531280e+01 0.000000000000e+00 
3.075999201883e+01 0.000000000000e+00 
3.078320874393e+01 0.000000000000e+00 
3.083415224208e+01 0.000000000000e+00 
3.085722914010e+01 0.000000000000e+00 
3.088037584613e+01 0.000000000000e+00 
3.090359257123e+01 0.000000000000e+00 
3.095333223181e+01 0.000000000000e+00 
3.097640912983e+01 0.000000000000e+00 
3.099955583586e+01 0.000000000000e+00 
3.102277256096e+01 0.000000000000e+00 
3.107132042076e+01 0.000000000000e+00 
3.109439731878e+01 0.000000000000e+00 
3.111754402481e+01 0.000000000000e+00 
3.114076074991e+01 0.000000000000e+00 
3.118812872813e+01 0.000000000000e+00 
3.121120562614e+01 0.000000000000e+00 
3.123435233217e+01 0.000000000000e+00 
3.125756905728e+01 0.000000000000e+00 
3.130376895265e+01 0.000000000000e+00 
3.132684585067e+01 0.000000000000e+00 
3.134999255670e+01 0.000000000000e+00 
3.137320928180e+01 0.000000000000e+00 
3.141825277508e+01 0.000000000000e+00 
3.144132967309e+01 0.000000000000e+00 
3.146447637912e+01 0.000000000000e+00 
3.148769310423e+01 0.000000000000e+00 
3.153159175781e+01 0.000000000000e+00 
3.155466865582e+01 0.000000000000e+00 
3.157781536185e+01 0.000000000000e+00 
3.160103208696e+01 0.000000000000e+00 
3.164379734996e+01 0.000000000000e+00 
3.166687424798e+01 0.000000000000e+00 
3.169002095401e+01 0.000000000000e+00 
3.171323767911e+01 0.000000000000e+00 
3.175488088695e+01 0.000000000000e+00 
3.177795778496e+01 0.000000000000e+00 
3.180110449099e+01 0.000000000000e+00 
3.182432121609e+01 0.000000000000e+00 
3.186485358759e+01 0.000000000000e+00 
3.188793048560e+01 0.000000000000e+00 
3.191107719163e+01 0.000000000000e+00 
3.193429391673e+01 0.000000000000e+00 
3.197372656162e+01 0.000000000000e+00 
3.199680345964e+01 0.000000000000e+00 
3.201995016567e+01 0.000000000000e+00 
3.204316689077e+01 0.000000000000e+00 
3.208151080666e+01 0.000000000000e+00 
3.210458770468e+01 0.000000000000e+00 
3.212773441071e+01 0.000000000000e+00 
3.215095113581e+01 0.000000000000e+00 
3.218821720786e+01 0.000000000000e+00 
3.221129410588e+01 0.000000000000e+00 
3.223444081191e+01 0.000000000000e+00 
3.225765753701e+01 0.000000000000e+00 
3.229385654533e+01 0.000000000000e+00 
3.231693344334e+01 0.000000000000e+00 
3.234008014937e+01 0.000000000000e+00 
3.236329687448e+01 0.000000000000e+00 
3.239843949100e+01 0.000000000000e+00 
3.242151638902e+01 0.000000000000e+00 
3.244466309505e+01 0.000000000000e+00 
3.246787982015e+01 0.000000000000e+00 
3.250197660566e+01 0.000000000000e+00 
3.252505350368e+01 0.000000000000e+00 
3.254820020971e+01 0.000000000000e+00 
3.257141693481e+01 0.000000000000e+00 
3.260447834890e+01 0.000000000000e+00 
3.262755524692e+01 0.000000000000e+00 
3.265070195295e+01 0.000000000000e+00 
3.267391867805e+01 0.000000000000e+00 
3.270595507594e+01 0.000000000000e+00 
3.272903197395e+01 0.000000000000e+00 
3.275217867998e+01 0.000000000000e+00 
3.277539540508e+01 0.000000000000e+00 
3.280641703451e+01 0.000000000000e+00 
3.282949393253e+01 0.000000000000e+00 
3.285264063856e+01 0.000000000000e+00 
3.287585736366e+01 0.000000000000e+00 
3.290587437485e+01 0.000000000000e+00 
3.292895127287e+01 0.000000000000e+00 
3.295209797890e+01 0.000000000000e+00 
3.297531470400e+01 0.000000000000e+00 
3.300433714375e+01 0.000000000000e+00 
3.302741404177e+01 0.000000000000e+00 
3.305056074780e+01 0.000000000000e+00 
3.307377747290e+01 0.000000000000e+00 
3.310181528410e+01 0.000000000000e+00 
3.312489218211e+01 0.000000000000e+00 
3.314803888814e+01 0.000000000000e+00 
3.317125561325e+01 0.000000000000e+00 
3.319831864208e+01 0.000000000000e+00 
3.322139554010e+01 0.000000000000e+00 
3.324454224613e+01 0.000000000000e+00 
3.326775897123e+01 0.000000000000e+00 
3.329385696656e+01 0.000000000000e+00 
3.331693386457e+01 0.000000000000e+00 
3.334008057060e+01 0.000000000000e+00 
3.336329729571e+01 0.000000000000e+00 
3.338843990837e+01 0.000000000000e+00 
3.341151680639e+01 0.000000000000e+00 
3.343466351242e+01 0.000000000000e+00 
3.345788023752e+01 0.000000000000e+00 
3.348207701973e+01 0.000000000000e+00 
3.350515391775e+01 0.000000000000e+00 
3.352830062378e+01 0.000000000000e+00 
3.355151734888e+01 0.000000000000e+00 
3.357477775875e+01 0.000000000000e+00 
3.359785465677e+01 0.000000000000e+00 
3.362100136280e+01 0.000000000000e+00 
3.364421808790e+01 0.000000000000e+00 
3.366655149133e+01 0.000000000000e+00 
3.368962838934e+01 0.000000000000e+00 
3.371277509538e+01 0.000000000000e+00 
3.373599182048e+01 0.000000000000e+00 
3.375740748780e+01 0.000000000000e+00 
3.378048438581e+01 0.000000000000e+00 
3.380363109184e+01 0.000000000000e+00 
3.382684781695e+01 0.000000000000e+00 
3.384735492484e+01 0.000000000000e+00 
3.387043182285e+01 0.000000000000e+00 
3.389357852888e+01 0.000000000000e+00 
3.391679525399e+01 0.000000000000e+00 
3.393640288730e+01 0.000000000000e+00 
3.395947978531e+01 0.000000000000e+00 
3.398262649134e+01 0.000000000000e+00 
3.400584321644e+01 0.000000000000e+00 
3.402456037006e+01 0.000000000000e+00 
3.404763726808e+01 0.000000000000e+00 
3.407078397411e+01 0.000000000000e+00 
3.409400069921e+01 0.000000000000e+00 
3.411183627722e+01 0.000000000000e+00 
3.413491317523e+01 0.000000000000e+00 
3.415805988126e+01 0.000000000000e+00 
3.418127660637e+01 0.000000000000e+00 
3.419823942389e+01 0.000000000000e+00 
3.422131632191e+01 0.000000000000e+00 
3.424446302794e+01 0.000000000000e+00 
3.426767975304e+01 0.000000000000e+00 
3.428377854059e+01 0.000000000000e+00 
3.430685543861e+01 0.000000000000e+00 
3.433000214464e+01 0.000000000000e+00 
3.435321886974e+01 0.000000000000e+00 
3.436846226712e+01 0.000000000000e+00 
3.439153916514e+01 0.000000000000e+00 
3.441468587117e+01 0.000000000000e+00 
3.443790259627e+01 0.000000000000e+00 
3.445229915438e+01 0.000000000000e+00 
3.447537605240e+01 0.000000000000e+00 
3.449852275843e+01 0.000000000000e+00 
3.452173948353e+01 0.000000000000e+00 
3.453529767131e+01 0.000000000000e+00 
3.455837456933e+01 0.000000000000e+00 
3.458152127536e+01 0.000000000000e+00 
3.460473800046e+01 0.000000000000e+00 
3.461746620395e+01 0.000000000000e+00 
3.464054310196e+01 0.000000000000e+00 
3.466368980800e+01 0.000000000000e+00 
3.468690653310e+01 0.000000000000e+00 
3.469881305189e+01 0.000000000000e+00 
3.472188994990e+01 0.000000000000e+00 
3.474503665593e+01 0.000000000000e+00 
3.476825338103e+01 0.000000000000e+00 
3.477934643260e+01 0.000000000000e+00 
3.480242333062e+01 0.000000000000e+00 
3.482557003665e+01 0.000000000000e+00 
3.484878676175e+01 0.000000000000e+00 
3.485907448045e+01 0.000000000000e+00 
3.488215137846e+01 0.000000000000e+00 
3.490529808450e+01 0.000000000000e+00 
3.492851480960e+01 0.000000000000e+00 
3.493800524576e+01 0.000000000000e+00 
3.496108214377e+01 0.000000000000e+00 
3.498422884980e+01 0.000000000000e+00 
3.500744557491e+01 0.000000000000e+00 
3.501614670167e+01 0.000000000000e+00 
3.503922359968e+01 0.000000000000e+00 
3.506237030571e+01 0.000000000000e+00 
3.508558703082e+01 0.000000000000e+00 
3.509350674309e+01 0.000000000000e+00 
3.511658364110e+01 0.000000000000e+00 
3.513973034713e+01 0.000000000000e+00 
3.516294707224e+01 0.000000000000e+00 
3.517009318568e+01 0.000000000000e+00 
3.519317008369e+01 0.000000000000e+00 
3.521631678972e+01 0.000000000000e+00 
3.523953351482e+01 0.000000000000e+00 
3.524591376479e+01 0.000000000000e+00 
3.526899066281e+01 0.000000000000e+00 
3.529213736884e+01 0.000000000000e+00 
3.531535409394e+01 0.000000000000e+00 
3.532097613711e+01 0.000000000000e+00 
3.534405303513e+01 0.000000000000e+00 
3.536719974116e+01 0.000000000000e+00 
3.539041646626e+01 0.000000000000e+00 
3.539528788477e+01 0.000000000000e+00 
3.541836478279e+01 0.000000000000e+00 
3.544151148882e+01 0.000000000000e+00 
3.546472821392e+01 0.000000000000e+00 
3.546885651688e+01 0.000000000000e+00 
3.549193341489e+01 0.000000000000e+00 
3.551508012092e+01 0.000000000000e+00 
3.553829684603e+01 0.000000000000e+00 
 TITLE = "Profiles along polylines"
 VARIABLES = "DIST" "HEAD" 
 ZONE T="TIME=1.797693134862e+308"
4.688565168781e-01 3.443297873889e+01 
4.919334148929e-01 3.443282572932e+01 
5.150801209236e-01 3.443266500455e+01 
5.382968460268e-01 3.443249649052e+01 
8.916894611435e-01 3.443285097360e+01 
9.147663591583e-01 3.443269788221e+01 
9.379130651891e-01 3.443253707523e+01 
9.611297902923e-01 3.443236847861e+01 
1.310294078283e+00 3.443272597554e+01 
1.333370976297e+00 3.443257280463e+01 
1.356517682328e+00 3.443241191763e+01 
1.379734407431e+00 3.443224324049e+01 
1.724712648152e+00 3.443260368846e+01 
1.747789546167e+00 3.443245044028e+01 
1.770936252198e+00 3.443228947538e+01 
1.794152977301e+00 3.443212071977e+01 
2.134987032171e+00 3.443248405596e+01 
2.158063930186e+00 3.443233073268e+01 
2.181210636217e+00 3.443216969198e+01 
2.204427361320e+00 3.443200085987e+01 
2.541158673824e+00 3.443236702286e+01 
2.564235571839e+00 3.443221362662e+01 
2.587382277870e+00 3.443205251212e+01 
2.610599002973e+00 3.443188360544e+01 
2.943268599246e+00 3.443225253527e+01 
2.966345497261e+00 3.443209906812e+01 
2.989492203291e+00 3.443193788180e+01 
3.012708928395e+00 3.443176890242e+01 
3.341357425494e+00 3.443214054046e+01 
3.364434323509e+00 3.443198700441e+01 
3.387581029540e+00 3.443182574817e+01 
3.410797754643e+00 3.443165669792e+01 
3.735465363507e+00 3.443203098685e+01 
3.758542261522e+00 3.443187738383e+01 
3.781688967553e+00 3.443171605952e+01 
3.804905692656e+00 3.443154694017e+01 
4.125632220988e+00 3.443192382392e+01 
4.148709119003e+00 3.443177015581e+01 
4.171855825034e+00 3.443160876521e+01 
4.195072550137e+00 3.443143957847e+01 
4.511897407848e+00 3.443181900220e+01 
4.534974305863e+00 3.443166527080e+01 
4.558121011893e+00 3.443150381566e+01 
4.581337736997e+00 3.443133456319e+01 
4.894299944140e+00 3.443171647322e+01 
4.917376842154e+00 3.443156268029e+01 
4.940523548185e+00 3.443140116228e+01 
4.963740273288e+00 3.443123184569e+01 
5.272878454778e+00 3.443161618953e+01 
5.295955352793e+00 3.443146233677e+01 
5.319102058823e+00 3.443130075751e+01 
5.342318783927e+00 3.443113137836e+01 
5.647671180122e+00 3.443151810464e+01 
5.670748078137e+00 3.443136419367e+01 
5.693894784168e+00 3.443120255473e+01 
5.717111509271e+00 3.443103311453e+01 
6.018715978267e+00 3.443142217302e+01 
6.041792876282e+00 3.443126820542e+01 
6.064939582313e+00 3.443110650831e+01 
6.088156307416e+00 3.443093700850e+01 