 TITLE = "Profiles along polylines"
 VARIABLES = "DIST" "HEAD" 
 ZONE T="TIME=0.000000000000e+00"
5.473394192312e+00 0.000000000000e+00 
5.511610377241e+00 0.000000000000e+00 
5.549942165938e+00 0.000000000000e+00 
5.896227136578e+00 0.000000000000e+00 
5.934443321507e+00 0.000000000000e+00 
5.972775110203e+00 0.000000000000e+00 
6.314831753717e+00 0.000000000000e+00 
6.353047938646e+00 0.000000000000e+00 
6.391379727343e+00 0.000000000000e+00 
6.729250323587e+00 0.000000000000e+00 
6.767466508516e+00 0.000000000000e+00 
6.805798297213e+00 0.000000000000e+00 
7.139524707607e+00 0.000000000000e+00 
7.177740892536e+00 0.000000000000e+00 
7.216072681232e+00 0.000000000000e+00 
7.545696349260e+00 0.000000000000e+00 
7.583912534189e+00 0.000000000000e+00 
7.622244322886e+00 0.000000000000e+00 
7.947806274682e+00 0.000000000000e+00 
7.986022459611e+00 0.000000000000e+00 
8.024354248308e+00 0.000000000000e+00 
8.345895100931e+00 0.000000000000e+00 
8.384111285860e+00 0.000000000000e+00 
8.422443074557e+00 0.000000000000e+00 
8.740003038944e+00 0.000000000000e+00 
8.778219223873e+00 0.000000000000e+00 
8.816551012570e+00 0.000000000000e+00 
9.130169896426e+00 0.000000000000e+00 
9.168386081355e+00 0.000000000000e+00 
9.206717870051e+00 0.000000000000e+00 
9.516435083285e+00 0.000000000000e+00 
9.554651268214e+00 0.000000000000e+00 
9.592983056911e+00 0.000000000000e+00 
9.898837619578e+00 0.000000000000e+00 
9.937053804506e+00 0.000000000000e+00 
9.975385593203e+00 0.000000000000e+00 
1.027741613022e+01 0.000000000000e+00 
1.031563231515e+01 0.000000000000e+00 
1.035396410384e+01 0.000000000000e+00 
1.065220885556e+01 0.000000000000e+00 
1.069042504049e+01 0.000000000000e+00 
1.072875682919e+01 0.000000000000e+00 
1.102325365371e+01 0.000000000000e+00 
1.106146983864e+01 0.000000000000e+00 
1.109980162733e+01 0.000000000000e+00 
1.139058800308e+01 0.000000000000e+00 
1.142880418801e+01 0.000000000000e+00 
1.146713597670e+01 0.000000000000e+00 
1.175424900984e+01 0.000000000000e+00 
1.179246519477e+01 0.000000000000e+00 
1.183079698347e+01 0.000000000000e+00 
1.211427340502e+01 0.000000000000e+00 
1.215248958995e+01 0.000000000000e+00 
1.219082137864e+01 0.000000000000e+00 
1.247069755713e+01 0.000000000000e+00 
1.250891374206e+01 0.000000000000e+00 
1.254724553075e+01 0.000000000000e+00 
1.282355746899e+01 0.000000000000e+00 
1.286177365392e+01 0.000000000000e+00 
1.290010544261e+01 0.000000000000e+00 
1.317288878246e+01 0.000000000000e+00 
1.321110496739e+01 0.000000000000e+00 
1.324943675609e+01 0.000000000000e+00 
1.351872678295e+01 0.000000000000e+00 
1.355694296788e+01 0.000000000000e+00 
1.359527475658e+01 0.000000000000e+00 
1.386110640139e+01 0.000000000000e+00 
1.389932258632e+01 0.000000000000e+00 
1.393765437501e+01 0.000000000000e+00 
1.420006222383e+01 0.000000000000e+00 
1.423827840876e+01 0.000000000000e+00 
1.427661019746e+01 0.000000000000e+00 
1.453562848797e+01 0.000000000000e+00 
1.457384467289e+01 0.000000000000e+00 
1.461217646159e+01 0.000000000000e+00 
1.486783909007e+01 0.000000000000e+00 
1.490605527500e+01 0.000000000000e+00 
1.494438706370e+01 0.000000000000e+00 
1.519672758656e+01 0.000000000000e+00 
1.523494377148e+01 0.000000000000e+00 
1.527327556018e+01 0.000000000000e+00 
1.552232719821e+01 0.000000000000e+00 
1.556054338314e+01 0.000000000000e+00 
1.559887517184e+01 0.000000000000e+00 
1.584467081419e+01 0.000000000000e+00 
1.588288699912e+01 0.000000000000e+00 
1.592121878782e+01 0.000000000000e+00 
1.616379099354e+01 0.000000000000e+00 
1.620200717847e+01 0.000000000000e+00 
1.624033896717e+01 0.000000000000e+00 
1.647971997166e+01 0.000000000000e+00 
1.651793615659e+01 0.000000000000e+00 
1.655626794529e+01 0.000000000000e+00 
1.679248965901e+01 0.000000000000e+00 
1.683070584394e+01 0.000000000000e+00 
1.686903763264e+01 0.000000000000e+00 
1.710213165020e+01 0.000000000000e+00 
1.714034783513e+01 0.000000000000e+00 
1.717867962383e+01 0.000000000000e+00 
1.740867722242e+01 0.000000000000e+00 
1.744689340735e+01 0.000000000000e+00 
1.748522519604e+01 0.000000000000e+00 
1.771215733662e+01 0.000000000000e+00 
1.775037352155e+01 0.000000000000e+00 
1.778870531024e+01 0.000000000000e+00 
1.801260264898e+01 0.000000000000e+00 
1.805081883391e+01 0.000000000000e+00 
1.808915062261e+01 0.000000000000e+00 
1.831004350920e+01 0.000000000000e+00 
1.834825969413e+01 0.000000000000e+00 
1.838659148282e+01 0.000000000000e+00 
1.860450996138e+01 0.000000000000e+00 
1.864272614631e+01 0.000000000000e+00 
1.868105793501e+01 0.000000000000e+00 
1.889603175016e+01 0.000000000000e+00 
1.893424793509e+01 0.000000000000e+00 
1.897257972379e+01 0.000000000000e+00 
1.918463832142e+01 0.000000000000e+00 
1.922285450635e+01 0.000000000000e+00 
1.926118629504e+01 0.000000000000e+00 
1.947035882566e+01 0.000000000000e+00 
1.950857501059e+01 0.000000000000e+00 
1.954690679928e+01 0.000000000000e+00 
1.975322212389e+01 0.000000000000e+00 
1.979143830882e+01 0.000000000000e+00 
1.982977009751e+01 0.000000000000e+00 
2.003325678817e+01 0.000000000000e+00 
2.007147297309e+01 0.000000000000e+00 
2.010980476179e+01 0.000000000000e+00 
2.031049110480e+01 0.000000000000e+00 
2.034870728973e+01 0.000000000000e+00 
2.038703907842e+01 0.000000000000e+00 
2.058495308002e+01 0.000000000000e+00 
2.062316926494e+01 0.000000000000e+00 
2.066150105364e+01 0.000000000000e+00 
2.085667043775e+01 0.000000000000e+00 
2.089488662267e+01 0.000000000000e+00 
2.093321841137e+01 0.000000000000e+00 
2.112567062266e+01 0.000000000000e+00 
2.116388680759e+01 0.000000000000e+00 
2.120221859628e+01 0.000000000000e+00 
2.139198080569e+01 0.000000000000e+00 
2.143019699062e+01 0.000000000000e+00 
2.146852877932e+01 0.000000000000e+00 
2.165562788430e+01 0.000000000000e+00 
2.169384406923e+01 0.000000000000e+00 
2.173217585793e+01 0.000000000000e+00 
2.191663849055e+01 0.000000000000e+00 
2.195485467548e+01 0.000000000000e+00 
2.199318646418e+01 0.000000000000e+00 
2.217503899114e+01 0.000000000000e+00 
2.221325517607e+01 0.000000000000e+00 
2.225158696476e+01 0.000000000000e+00 
2.243085548757e+01 0.000000000000e+00 
2.246907167250e+01 0.000000000000e+00 
2.250740346119e+01 0.000000000000e+00 
2.268411381876e+01 0.000000000000e+00 
2.272233000369e+01 0.000000000000e+00 
2.276066179239e+01 0.000000000000e+00 
2.293483956635e+01 0.000000000000e+00 
2.297305575128e+01 0.000000000000e+00 
2.301138753998e+01 0.000000000000e+00 
2.318305805712e+01 0.000000000000e+00 
2.322127424205e+01 0.000000000000e+00 
2.325960603074e+01 0.000000000000e+00 
2.342879436295e+01 0.000000000000e+00 
2.346701054788e+01 0.000000000000e+00 
2.350534233658e+01 0.000000000000e+00 
2.367207330589e+01 0.000000000000e+00 
2.371028949082e+01 0.000000000000e+00 
2.374862127951e+01 0.000000000000e+00 
2.391291946049e+01 0.000000000000e+00 
2.395113564542e+01 0.000000000000e+00 
2.398946743412e+01 0.000000000000e+00 
2.415135715358e+01 0.000000000000e+00 
2.418957333851e+01 0.000000000000e+00 
2.422790512721e+01 0.000000000000e+00 
2.438741046919e+01 0.000000000000e+00 
2.442562665412e+01 0.000000000000e+00 
2.446395844282e+01 0.000000000000e+00 
2.462110325074e+01 0.000000000000e+00 
2.465931943567e+01 0.000000000000e+00 
2.469765122436e+01 0.000000000000e+00 
2.485245910331e+01 0.000000000000e+00 
2.489067528824e+01 0.000000000000e+00 
2.492900707694e+01 0.000000000000e+00 
2.508150139833e+01 0.000000000000e+00 
2.511971758326e+01 0.000000000000e+00 
2.515804937196e+01 0.000000000000e+00 
2.530825327049e+01 0.000000000000e+00 
2.534646945542e+01 0.000000000000e+00 
2.538480124411e+01 0.000000000000e+00 
2.553273762500e+01 0.000000000000e+00 
2.557095380993e+01 0.000000000000e+00 
2.560928559863e+01 0.000000000000e+00 
2.575497713700e+01 0.000000000000e+00 
2.579319332193e+01 0.000000000000e+00 
2.583152511063e+01 0.000000000000e+00 
2.597499425352e+01 0.000000000000e+00 
2.601321043845e+01 0.000000000000e+00 
2.605154222715e+01 0.000000000000e+00 
2.619281119803e+01 0.000000000000e+00 
2.623102738296e+01 0.000000000000e+00 
2.626935917165e+01 0.000000000000e+00 
2.640844997228e+01 0.000000000000e+00 
2.644666615721e+01 0.000000000000e+00 
2.648499794590e+01 0.000000000000e+00 
2.662193235813e+01 0.000000000000e+00 
2.666014854306e+01 0.000000000000e+00 
2.669848033176e+01 0.000000000000e+00 
2.683327991936e+01 0.000000000000e+00 
2.687149610429e+01 0.000000000000e+00 
2.690982789299e+01 0.000000000000e+00 
2.704251400596e+01 0.000000000000e+00 
2.708073019089e+01 0.000000000000e+00 
2.711906197959e+01 0.000000000000e+00 
2.724965575324e+01 0.000000000000e+00 
2.728787193817e+01 0.000000000000e+00 
2.732620372687e+01 0.000000000000e+00 
2.745472608348e+01 0.000000000000e+00 
2.749294226841e+01 0.000000000000e+00 
2.753127405711e+01 0.000000000000e+00 
2.765774571017e+01 0.000000000000e+00 
2.769596189510e+01 0.000000000000e+00 
2.773429368380e+01 0.000000000000e+00 
2.785873513956e+01 0.000000000000e+00 
2.789695132449e+01 0.000000000000e+00 
2.793528311319e+01 0.000000000000e+00 
2.805771467483e+01 0.000000000000e+00 
2.809593085975e+01 0.000000000000e+00 
2.813426264845e+01 0.000000000000e+00 
2.825470441486e+01 0.000000000000e+00 
2.829292059978e+01 0.000000000000e+00 
2.833125238848e+01 0.000000000000e+00 
2.844972425838e+01 0.000000000000e+00 
2.848794044331e+01 0.000000000000e+00 
2.852627223201e+01 0.000000000000e+00 
2.864279390536e+01 0.000000000000e+00 
2.868101009029e+01 0.000000000000e+00 
2.871934187899e+01 0.000000000000e+00 
2.883393285578e+01 0.000000000000e+00 
2.887214904071e+01 0.000000000000e+00 
2.891048082941e+01 0.000000000000e+00 
2.902316041596e+01 0.000000000000e+00 
2.906137660089e+01 0.000000000000e+00 
2.909970838959e+01 0.000000000000e+00 
2.921049570021e+01 0.000000000000e+00 
2.924871188514e+01 0.000000000000e+00 
2.928704367384e+01 0.000000000000e+00 
2.939595763181e+01 0.000000000000e+00 
2.943417381674e+01 0.000000000000e+00 
2.947250560544e+01 0.000000000000e+00 
2.957956494428e+01 0.000000000000e+00 
2.961778112921e+01 0.000000000000e+00 
2.965611291791e+01 0.000000000000e+00 
2.976133618255e+01 0.000000000000e+00 
2.979955236748e+01 0.000000000000e+00 
2.983788415618e+01 0.000000000000e+00 
2.994128970674e+01 0.000000000000e+00 
2.997950589167e+01 0.000000000000e+00 
3.001783768036e+01 0.000000000000e+00 
3.011944369580e+01 0.000000000000e+00 
3.015765988073e+01 0.000000000000e+00 
3.019599166942e+01 0.000000000000e+00 
3.029581614596e+01 0.000000000000e+00 
3.033403233089e+01 0.000000000000e+00 
3.037236411958e+01 0.000000000000e+00 
3.047042487177e+01 0.000000000000e+00 
3.050864105670e+01 0.000000000000e+00 
3.054697284539e+01 0.000000000000e+00 
3.064328750968e+01 0.000000000000e+00 
3.068150369461e+01 0.000000000000e+00 
3.071983548331e+01 0.000000000000e+00 
3.081442152164e+01 0.000000000000e+00 
3.085263770657e+01 0.000000000000e+00 
3.089096949527e+01 0.000000000000e+00 
3.098384419331e+01 0.000000000000e+00 
3.102206037824e+01 0.000000000000e+00 
3.106039216694e+01 0.000000000000e+00 
3.115157263764e+01 0.000000000000e+00 
3.118978882257e+01 0.000000000000e+00 
3.122812061126e+01 0.000000000000e+00 
3.131762379826e+01 0.000000000000e+00 
3.135583998319e+01 0.000000000000e+00 
3.139417177188e+01 0.000000000000e+00 
3.148201444768e+01 0.000000000000e+00 
3.152023063261e+01 0.000000000000e+00 
3.155856242131e+01 0.000000000000e+00 
3.164476119071e+01 0.000000000000e+00 
3.168297737563e+01 0.000000000000e+00 
3.172130916433e+01 0.000000000000e+00 
3.180588046514e+01 0.000000000000e+00 
3.184409665007e+01 0.000000000000e+00 
3.188242843876e+01 0.000000000000e+00 
3.196538854775e+01 0.000000000000e+00 
3.200360473268e+01 0.000000000000e+00 
3.204193652138e+01 0.000000000000e+00 
3.212330154965e+01 0.000000000000e+00 
3.216151773458e+01 0.000000000000e+00 
3.219984952327e+01 0.000000000000e+00 
3.227963541962e+01 0.000000000000e+00 
3.231785160455e+01 0.000000000000e+00 
3.235618339325e+01 0.000000000000e+00 
3.243440595253e+01 0.000000000000e+00 
3.247262213746e+01 0.000000000000e+00 
3.251095392616e+01 0.000000000000e+00 
3.258762878200e+01 0.000000000000e+00 
3.262584496693e+01 0.000000000000e+00 
3.266417675563e+01 0.000000000000e+00 
3.273931938365e+01 0.000000000000e+00 
3.277753556858e+01 0.000000000000e+00 
3.281586735727e+01 0.000000000000e+00 
3.288949307817e+01 0.000000000000e+00 
3.292770926310e+01 0.000000000000e+00 
3.296604105180e+01 0.000000000000e+00 
3.303816503449e+01 0.000000000000e+00 
3.307638121942e+01 0.000000000000e+00 
3.311471300811e+01 0.000000000000e+00 
3.318535027011e+01 0.000000000000e+00 
3.322356645504e+01 0.000000000000e+00 
3.326189824373e+01 0.000000000000e+00 
3.333106365423e+01 0.000000000000e+00 
3.336927983915e+01 0.000000000000e+00 
3.340761162785e+01 0.000000000000e+00 
3.347531990540e+01 0.000000000000e+00 
3.351353609033e+01 0.000000000000e+00 
3.355186787902e+01 0.000000000000e+00 
3.361813359201e+01 0.000000000000e+00 
3.365634977694e+01 0.000000000000e+00 
3.369468156564e+01 0.000000000000e+00 
3.375951914304e+01 0.000000000000e+00 
3.379773532797e+01 0.000000000000e+00 
3.383606711666e+01 0.000000000000e+00 
3.389949084039e+01 0.000000000000e+00 
3.393770702532e+01 0.000000000000e+00 
3.397603881401e+01 0.000000000000e+00 
3.403806281930e+01 0.000000000000e+00 
3.407627900423e+01 0.000000000000e+00 
3.411461079293e+01 0.000000000000e+00 
3.417524907903e+01 0.000000000000e+00 
3.421346526396e+01 0.000000000000e+00 
3.425179705266e+01 0.000000000000e+00 
3.431106347774e+01 0.000000000000e+00 
3.434927966267e+01 0.000000000000e+00 
3.438761145136e+01 0.000000000000e+00 
3.444551973012e+01 0.000000000000e+00 
3.448373591505e+01 0.000000000000e+00 
3.452206770374e+01 0.000000000000e+00 
3.457863141808e+01 0.000000000000e+00 
3.461684760301e+01 0.000000000000e+00 
3.465517939170e+01 0.000000000000e+00 
3.471041199074e+01 0.000000000000e+00 
3.474862817567e+01 0.000000000000e+00 
3.478695996436e+01 0.000000000000e+00 
3.484087475934e+01 0.000000000000e+00 
3.487909094426e+01 0.000000000000e+00 
3.491742273296e+01 0.000000000000e+00 
3.497003289993e+01 0.000000000000e+00 
3.500824908486e+01 0.000000000000e+00 
3.504658087356e+01 0.000000000000e+00 
3.509789945872e+01 0.000000000000e+00 
3.513611564365e+01 0.000000000000e+00 
3.517444743235e+01 0.000000000000e+00 
3.522448735199e+01 0.000000000000e+00 
3.526270353692e+01 0.000000000000e+00 
3.530103532561e+01 0.000000000000e+00 
3.534980936613e+01 0.000000000000e+00 
3.538802555105e+01 0.000000000000e+00 
3.542635733975e+01 0.000000000000e+00 
3.547387816021e+01 0.000000000000e+00 
3.551209434514e+01 0.000000000000e+00 
3.555042613384e+01 0.000000000000e+00 
3.559670626596e+01 0.000000000000e+00 
3.563492245089e+01 0.000000000000e+00 
3.567325423958e+01 0.000000000000e+00 
3.571830609022e+01 0.000000000000e+00 
3.575652227515e+01 0.000000000000e+00 
3.579485406385e+01 0.000000000000e+00 
3.583868991752e+01 0.000000000000e+00 
3.587690610245e+01 0.000000000000e+00 
3.591523789114e+01 0.000000000000e+00 
3.595786990725e+01 0.000000000000e+00 
3.599608609218e+01 0.000000000000e+00 
3.603441788088e+01 0.000000000000e+00 
3.607585809620e+01 0.000000000000e+00 
3.611407428113e+01 0.000000000000e+00 
3.615240606983e+01 0.000000000000e+00 
3.619266640356e+01 0.000000000000e+00 
3.623088258849e+01 0.000000000000e+00 
3.626921437719e+01 0.000000000000e+00 
3.630830662809e+01 0.000000000000e+00 
3.634652281302e+01 0.000000000000e+00 
3.638485460172e+01 0.000000000000e+00 
3.642279045051e+01 0.000000000000e+00 
3.646100663544e+01 0.000000000000e+00 
3.649933842414e+01 0.000000000000e+00 
3.653612943324e+01 0.000000000000e+00 
3.657434561817e+01 0.000000000000e+00 
3.661267740687e+01 0.000000000000e+00 
3.664833502540e+01 0.000000000000e+00 
3.668655121033e+01 0.000000000000e+00 
3.672488299903e+01 0.000000000000e+00 
3.675941856238e+01 0.000000000000e+00 
3.679763474731e+01 0.000000000000e+00 
3.683596653601e+01 0.000000000000e+00 
3.686939126302e+01 0.000000000000e+00 
3.690760744795e+01 0.000000000000e+00 
3.694593923665e+01 0.000000000000e+00 
3.697826423706e+01 0.000000000000e+00 
3.701648042199e+01 0.000000000000e+00 
3.705481221068e+01 0.000000000000e+00 
3.708604848210e+01 0.000000000000e+00 
3.712426466703e+01 0.000000000000e+00 
3.716259645573e+01 0.000000000000e+00 
3.719275488330e+01 0.000000000000e+00 
3.723097106823e+01 0.000000000000e+00 
3.726930285692e+01 0.000000000000e+00 
3.729839422076e+01 0.000000000000e+00 
3.733661040569e+01 0.000000000000e+00 
3.737494219439e+01 0.000000000000e+00 
3.740297716644e+01 0.000000000000e+00 
3.744119335137e+01 0.000000000000e+00 
3.747952514006e+01 0.000000000000e+00 
3.750651428110e+01 0.000000000000e+00 
3.754473046603e+01 0.000000000000e+00 
3.758306225472e+01 0.000000000000e+00 
3.760901602434e+01 0.000000000000e+00 
3.764723220927e+01 0.000000000000e+00 
3.768556399797e+01 0.000000000000e+00 
3.771049275137e+01 0.000000000000e+00 
3.774870893630e+01 0.000000000000e+00 
3.778704072500e+01 0.000000000000e+00 
3.781095470995e+01 0.000000000000e+00 
3.784917089488e+01 0.000000000000e+00 
3.788750268357e+01 0.000000000000e+00 
3.791041205029e+01 0.000000000000e+00 
3.794862823522e+01 0.000000000000e+00 
3.798696002392e+01 0.000000000000e+00 
3.800887481919e+01 0.000000000000e+00 
3.804709100412e+01 0.000000000000e+00 
3.808542279281e+01 0.000000000000e+00 
3.810635295953e+01 0.000000000000e+00 
3.814456914446e+01 0.000000000000e+00 
3.818290093316e+01 0.000000000000e+00 
3.820285631752e+01 0.000000000000e+00 
3.824107250245e+01 0.000000000000e+00 
3.827940429114e+01 0.000000000000e+00 
3.829839464199e+01 0.000000000000e+00 
3.833661082692e+01 0.000000000000e+00 
3.837494261562e+01 0.000000000000e+00 
3.839297758381e+01 0.000000000000e+00 
3.843119376874e+01 0.000000000000e+00 
3.846952555744e+01 0.000000000000e+00 
3.848661469517e+01 0.000000000000e+00 
3.852483088010e+01 0.000000000000e+00 
3.856316266879e+01 0.000000000000e+00 
3.857931543419e+01 0.000000000000e+00 
3.861753161912e+01 0.000000000000e+00 
3.865586340781e+01 0.000000000000e+00 
3.867108916676e+01 0.000000000000e+00 
3.870930535169e+01 0.000000000000e+00 
3.874763714039e+01 0.000000000000e+00 
3.876194516323e+01 0.000000000000e+00 
3.880016134816e+01 0.000000000000e+00 
3.883849313686e+01 0.000000000000e+00 
3.885189260027e+01 0.000000000000e+00 
3.889010878520e+01 0.000000000000e+00 
3.892844057390e+01 0.000000000000e+00 
3.894094056273e+01 0.000000000000e+00 
3.897915674766e+01 0.000000000000e+00 
3.901748853636e+01 0.000000000000e+00 
3.902909804550e+01 0.000000000000e+00 
3.906731423043e+01 0.000000000000e+00 
3.910564601912e+01 0.000000000000e+00 
3.911637395265e+01 0.000000000000e+00 
3.915459013758e+01 0.000000000000e+00 
3.919292192628e+01 0.000000000000e+00 
3.920277709932e+01 0.000000000000e+00 
3.924099328425e+01 0.000000000000e+00 
3.927932507295e+01 0.000000000000e+00 
3.928831621603e+01 0.000000000000e+00 
3.932653240096e+01 0.000000000000e+00 
3.936486418965e+01 0.000000000000e+00 
3.937299994256e+01 0.000000000000e+00 
3.941121612749e+01 0.000000000000e+00 
3.944954791618e+01 0.000000000000e+00 
3.945683682982e+01 0.000000000000e+00 
3.949505301474e+01 0.000000000000e+00 
3.953338480344e+01 0.000000000000e+00 
3.953983534675e+01 0.000000000000e+00 
3.957805153167e+01 0.000000000000e+00 
3.961638332037e+01 0.000000000000e+00 
3.962200387938e+01 0.000000000000e+00 
3.966022006431e+01 0.000000000000e+00 
3.969855185301e+01 0.000000000000e+00 
3.970335072732e+01 0.000000000000e+00 
3.974156691225e+01 0.000000000000e+00 
3.977989870095e+01 0.000000000000e+00 
3.978388410804e+01 0.000000000000e+00 
3.982210029297e+01 0.000000000000e+00 
3.986043208166e+01 0.000000000000e+00 
3.986361215588e+01 0.000000000000e+00 
3.990182834081e+01 0.000000000000e+00 
3.994016012951e+01 0.000000000000e+00 
3.994254292119e+01 0.000000000000e+00 
3.998075910612e+01 0.000000000000e+00 
4.001909089482e+01 0.000000000000e+00 
4.002068437710e+01 0.000000000000e+00 
4.005890056203e+01 0.000000000000e+00 
4.009723235073e+01 0.000000000000e+00 
4.009804441852e+01 0.000000000000e+00 
4.013626060345e+01 0.000000000000e+00 
4.017459239215e+01 0.000000000000e+00 
4.017463086111e+01 0.000000000000e+00 
4.021284704604e+01 0.000000000000e+00 
4.025045144023e+01 0.000000000000e+00 
4.025117883474e+01 0.000000000000e+00 
4.028866762516e+01 0.000000000000e+00 
4.032551381255e+01 0.000000000000e+00 
4.032699941385e+01 0.000000000000e+00 
4.036372999748e+01 0.000000000000e+00 
4.039982556021e+01 0.000000000000e+00 
4.040206178617e+01 0.000000000000e+00 
4.043804174514e+01 0.000000000000e+00 
4.047339419231e+01 0.000000000000e+00 
4.047637353383e+01 0.000000000000e+00 
4.051161037724e+01 0.000000000000e+00 
4.054994216594e+01 0.000000000000e+00 
 TITLE = "Profiles along polylines"
 VARIABLES = "DIST" "HEAD" 
 ZONE T="TIME=1.797693134862e+308"
5.473394192312e+00 3.422902293964e+01 
5.511610377241e+00 3.422614345054e+01 
5.549942165938e+00 3.422323511679e+01 
5.896227136578e+00 3.422887706405e+01 
5.934443321507e+00 3.422599743644e+01 
5.972775110203e+00 3.422308896375e+01 
6.314831753717e+00 3.422873415508e+01 
6.353047938646e+00 3.422585439034e+01 
6.391379727343e+00 3.422294578012e+01 
6.729250323587e+00 3.422859415349e+01 
6.767466508516e+00 3.422571425301e+01 
6.805798297213e+00 3.422280550661e+01 
7.139524707607e+00 3.422845700089e+01 
7.177740892536e+00 3.422557696600e+01 
7.216072681232e+00 3.422266808480e+01 
7.545696349260e+00 3.422832263988e+01 
7.583912534189e+00 3.422544247193e+01 
7.622244322886e+00 3.422253345727e+01 
7.947806274682e+00 3.422819101425e+01 
7.986022459611e+00 3.422531071457e+01 
8.024354248308e+00 3.422240156778e+01 
8.345895100931e+00 3.422806206889e+01 
8.384111285860e+00 3.422518163880e+01 
8.422443074557e+00 3.422227236120e+01 
8.740003038944e+00 3.422793574984e+01 
8.778219223873e+00 3.422505519064e+01 
8.816551012570e+00 3.422214578354e+01 
9.130169896426e+00 3.422781200421e+01 
9.168386081355e+00 3.422493131720e+01 
9.206717870051e+00 3.422202178189e+01 
9.516435083285e+00 3.422769078019e+01 
9.554651268214e+00 3.422480996663e+01 
9.592983056911e+00 3.422190030440e+01 
9.898837619578e+00 3.422757202698e+01 
9.937053804506e+00 3.422469108815e+01 
9.975385593203e+00 3.422178130027e+01 
1.027741613022e+01 3.422745569484e+01 
1.031563231515e+01 3.422457463199e+01 
1.035396410384e+01 3.422166471971e+01 
1.065220885556e+01 3.422734173500e+01 
1.069042504049e+01 3.422446054936e+01 
1.072875682919e+01 3.422155051393e+01 
1.102325365371e+01 3.422723009967e+01 
1.106146983864e+01 3.422434879249e+01 
1.109980162733e+01 3.422143863514e+01 
1.139058800308e+01 3.422712074204e+01 
1.142880418801e+01 3.422423931452e+01 
1.146713597670e+01 3.422132903646e+01 
1.175424900984e+01 3.422701361621e+01 
1.179246519477e+01 3.422413206955e+01 
1.183079698347e+01 3.422122167200e+01 
1.211427340502e+01 3.422690867721e+01 
1.215248958995e+01 3.422402701261e+01 
1.219082137864e+01 3.422111649676e+01 
1.247069755713e+01 3.422680588098e+01 
1.250891374206e+01 3.422392409961e+01 
1.254724553075e+01 3.422101346664e+01 
1.282355746899e+01 3.422670518432e+01 
1.286177365392e+01 3.422382328736e+01 
1.290010544261e+01 3.422091253845e+01 
1.317288878246e+01 3.422660654492e+01 
1.321110496739e+01 3.422372453352e+01 
1.324943675609e+01 3.422081366982e+01 
1.351872678295e+01 3.422650992131e+01 
1.355694296788e+01 3.422362779660e+01 
1.359527475658e+01 3.422071681926e+01 
1.386110640139e+01 3.422641527283e+01 
1.389932258632e+01 3.422353303596e+01 
1.393765437501e+01 3.422062194612e+01 
1.420006222383e+01 3.422632255966e+01 
1.423827840876e+01 3.422344021176e+01 
1.427661019746e+01 3.422052901054e+01 
1.453562848797e+01 3.422623174278e+01 
1.457384467289e+01 3.422334928494e+01 
1.461217646159e+01 3.422043797346e+01 
1.486783909007e+01 3.422614278392e+01 
1.490605527500e+01 3.422326021725e+01 
1.494438706370e+01 3.422034879661e+01 
1.519672758656e+01 3.422605564562e+01 
1.523494377148e+01 3.422317297120e+01 
1.527327556018e+01 3.422026144249e+01 
1.552232719821e+01 3.422597029113e+01 
1.556054338314e+01 3.422308751005e+01 
1.559887517184e+01 3.422017587434e+01 
1.584467081419e+01 3.422588668446e+01 
1.588288699912e+01 3.422300379778e+01 
1.592121878782e+01 3.422009205615e+01 
1.616379099354e+01 3.422580479033e+01 
1.620200717847e+01 3.422292179911e+01 
1.624033896717e+01 3.422000995263e+01 
1.647971997166e+01 3.422572457419e+01 
1.651793615659e+01 3.422284147947e+01 
1.655626794529e+01 3.421992952917e+01 
1.679248965901e+01 3.422564600215e+01 
1.683070584394e+01 3.422276280497e+01 
1.686903763264e+01 3.421985075190e+01 
1.710213165020e+01 3.422556904102e+01 
1.714034783513e+01 3.422268574240e+01 
1.717867962383e+01 3.421977358758e+01 
1.740867722242e+01 3.422549365827e+01 
1.744689340735e+01 3.422261025922e+01 
1.748522519604e+01 3.421969800368e+01 
1.771215733662e+01 3.422541982201e+01 
1.775037352155e+01 3.422253632355e+01 
1.778870531024e+01 3.421962396828e+01 
1.801260264898e+01 3.422534750102e+01 
1.805081883391e+01 3.422246390413e+01 
1.808915062261e+01 3.421955145014e+01 
1.831004350920e+01 3.422527666467e+01 
1.834825969413e+01 3.422239297034e+01 
1.838659148282e+01 3.421948041862e+01 
1.860450996138e+01 3.422520728298e+01 
1.864272614631e+01 3.422232349218e+01 
1.868105793501e+01 3.421941084369e+01 
1.889603175016e+01 3.422513932653e+01 
1.893424793509e+01 3.422225544023e+01 
1.897257972379e+01 3.421934269595e+01 
1.918463832142e+01 3.422507276652e+01 
1.922285450635e+01 3.422218878567e+01 
1.926118629504e+01 3.421927594656e+01 
1.947035882566e+01 3.422500757473e+01 
1.950857501059e+01 3.422212350028e+01 
1.954690679928e+01 3.421921056728e+01 
1.975322212389e+01 3.422494372348e+01 
1.979143830882e+01 3.422205955637e+01 
1.982977009751e+01 3.421914653042e+01 
2.003325678817e+01 3.422488118568e+01 
2.007147297309e+01 3.422199692682e+01 
2.010980476179e+01 3.421908380886e+01 
2.031049110480e+01 3.422481993474e+01 
2.034870728973e+01 3.422193558506e+01 
2.038703907842e+01 3.421902237601e+01 
2.058495308002e+01 3.422475994465e+01 
2.062316926494e+01 3.422187550506e+01 
2.066150105364e+01 3.421896220581e+01 
2.085667043775e+01 3.422470118988e+01 
2.089488662267e+01 3.422181666128e+01 
2.093321841137e+01 3.421890327275e+01 
2.112567062266e+01 3.422464364545e+01 
2.116388680759e+01 3.422175902872e+01 
2.120221859628e+01 3.421884555180e+01 
2.139198080569e+01 3.422458728685e+01 
2.143019699062e+01 3.422170258288e+01 
2.146852877932e+01 3.421878901845e+01 
2.165562788430e+01 3.422453209008e+01 
2.169384406923e+01 3.422164729974e+01 
2.173217585793e+01 3.421873364868e+01 
2.191663849055e+01 3.422447803162e+01 
2.195485467548e+01 3.422159315577e+01 
2.199318646418e+01 3.421867941895e+01 
2.217503899114e+01 3.422442508841e+01 
2.221325517607e+01 3.422154012791e+01 
2.225158696476e+01 3.421862630618e+01 
2.243085548757e+01 3.422437323787e+01 
2.246907167250e+01 3.422148819356e+01 
2.250740346119e+01 3.421857428777e+01 
2.268411381876e+01 3.422432245786e+01 
2.272233000369e+01 3.422143733059e+01 
2.276066179239e+01 3.421852334158e+01 
2.293483956635e+01 3.422427272669e+01 
2.297305575128e+01 3.422138751728e+01 
2.301138753998e+01 3.421847344588e+01 
2.318305805712e+01 3.422422402311e+01 
2.322127424205e+01 3.422133873238e+01 
2.325960603074e+01 3.421842457942e+01 
2.342879436295e+01 3.422417632628e+01 
2.346701054788e+01 3.422129095505e+01 
2.350534233658e+01 3.421837672134e+01 
2.367207330589e+01 3.422412961580e+01 
2.371028949082e+01 3.422124416487e+01 
2.374862127951e+01 3.421832985123e+01 
2.391291946049e+01 3.422408387167e+01 
2.395113564542e+01 3.422119834183e+01 
2.398946743412e+01 3.421828394905e+01 
2.415135715358e+01 3.422403907428e+01 
2.418957333851e+01 3.422115346633e+01 
2.422790512721e+01 3.421823899520e+01 
2.438741046919e+01 3.422399520444e+01 
2.442562665412e+01 3.422110951916e+01 
2.446395844282e+01 3.421819497047e+01 
2.462110325074e+01 3.422395224332e+01 
2.465931943567e+01 3.422106648148e+01 
2.469765122436e+01 3.421815185600e+01 
2.485245910331e+01 3.422391017248e+01 
2.489067528824e+01 3.422102433486e+01 
2.492900707694e+01 3.421810963335e+01 
2.508150139833e+01 3.422386897386e+01 
2.511971758326e+01 3.422098306120e+01 
2.515804937196e+01 3.421806828444e+01 
2.530825327049e+01 3.422382862975e+01 
2.534646945542e+01 3.422094264280e+01 
2.538480124411e+01 3.421802779153e+01 
2.553273762500e+01 3.422378912279e+01 
2.557095380993e+01 3.422090306230e+01 
2.560928559863e+01 3.421798813726e+01 
2.575497713700e+01 3.422375043598e+01 
2.579319332193e+01 3.422086430269e+01 
2.583152511063e+01 3.421794930463e+01 
2.597499425352e+01 3.422371255266e+01 
2.601321043845e+01 3.422082634730e+01 
2.605154222715e+01 3.421791127694e+01 
2.619281119803e+01 3.422367545651e+01 
2.623102738296e+01 3.422078917979e+01 
2.626935917165e+01 3.421787403786e+01 
2.640844997228e+01 3.422363913153e+01 
2.644666615721e+01 3.422075278416e+01 
2.648499794590e+01 3.421783757138e+01 
2.662193235813e+01 3.422360356204e+01 
2.666014854306e+01 3.422071714474e+01 
2.669848033176e+01 3.421780186180e+01 
2.683327991936e+01 3.422356873268e+01 
2.687149610429e+01 3.422068224614e+01 
2.690982789299e+01 3.421776689376e+01 
2.704251400596e+01 3.422353462840e+01 
2.708073019089e+01 3.422064807332e+01 
2.711906197959e+01 3.421773265219e+01 
2.724965575324e+01 3.422350123446e+01 
2.728787193817e+01 3.422061461152e+01 
2.732620372687e+01 3.421769912232e+01 
2.745472608348e+01 3.422346853639e+01 
2.749294226841e+01 3.422058184627e+01 
2.753127405711e+01 3.421766628968e+01 
2.765774571017e+01 3.422343652004e+01 
2.769596189510e+01 3.422054976341e+01 
2.773429368380e+01 3.421763414012e+01 
2.785873513956e+01 3.422340517153e+01 
2.789695132449e+01 3.422051834906e+01 
2.793528311319e+01 3.421760265972e+01 
2.805771467483e+01 3.422337447726e+01 
2.809593085975e+01 3.422048758961e+01 
2.813426264845e+01 3.421757183489e+01 
2.825470441486e+01 3.422334442392e+01 
2.829292059978e+01 3.422045747173e+01 
2.833125238848e+01 3.421754165228e+01 
2.844972425838e+01 3.422331499844e+01 
2.848794044331e+01 3.422042798236e+01 