 TITLE = "Profiles along polylines"
 VARIABLES = "DIST" "HEAD" 
 ZONE T="TIME=0.000000000000e+00"
1.957000223849e+00 0.000000000000e+00 
1.984578764925e+00 0.000000000000e+00 
2.012240730631e+00 0.000000000000e+00 
2.039986374397e+00 0.000000000000e+00 
2.379833168115e+00 0.000000000000e+00 
2.407411709190e+00 0.000000000000e+00 
2.435073674896e+00 0.000000000000e+00 
2.462819318662e+00 0.000000000000e+00 
2.798437785254e+00 0.000000000000e+00 
2.826016326329e+00 0.000000000000e+00 
2.853678292036e+00 0.000000000000e+00 
2.881423935801e+00 0.000000000000e+00 
3.212856355124e+00 0.000000000000e+00 
3.240434896199e+00 0.000000000000e+00 
3.268096861905e+00 0.000000000000e+00 
3.295842505671e+00 0.000000000000e+00 
3.623130739143e+00 0.000000000000e+00 
3.650709280218e+00 0.000000000000e+00 
3.678371245925e+00 0.000000000000e+00 
3.706116889690e+00 0.000000000000e+00 
4.029302380796e+00 0.000000000000e+00 
4.056880921871e+00 0.000000000000e+00 
4.084542887578e+00 0.000000000000e+00 
4.112288531343e+00 0.000000000000e+00 
4.431412306218e+00 0.000000000000e+00 
4.458990847293e+00 0.000000000000e+00 
4.486652812999e+00 0.000000000000e+00 
4.514398456765e+00 0.000000000000e+00 
4.829501132466e+00 0.000000000000e+00 
4.857079673542e+00 0.000000000000e+00 
4.884741639248e+00 0.000000000000e+00 
4.912487283014e+00 0.000000000000e+00 
5.223609070479e+00 0.000000000000e+00 
5.251187611554e+00 0.000000000000e+00 
5.278849577261e+00 0.000000000000e+00 
5.306595221027e+00 0.000000000000e+00 
5.613775927960e+00 0.000000000000e+00 
5.641354469036e+00 0.000000000000e+00 
5.669016434742e+00 0.000000000000e+00 
5.696762078508e+00 0.000000000000e+00 
6.000041114820e+00 0.000000000000e+00 
6.027619655895e+00 0.000000000000e+00 
6.055281621602e+00 0.000000000000e+00 
6.083027265368e+00 0.000000000000e+00 
6.382443651112e+00 0.000000000000e+00 
6.410022192187e+00 0.000000000000e+00 
6.437684157894e+00 0.000000000000e+00 
6.465429801659e+00 0.000000000000e+00 
6.761022161750e+00 0.000000000000e+00 
6.788600702826e+00 0.000000000000e+00 
6.816262668532e+00 0.000000000000e+00 
6.844008312298e+00 0.000000000000e+00 
7.135814887095e+00 0.000000000000e+00 
7.163393428170e+00 0.000000000000e+00 
7.191055393876e+00 0.000000000000e+00 
7.218801037642e+00 0.000000000000e+00 
7.506859685240e+00 0.000000000000e+00 
7.534438226315e+00 0.000000000000e+00 
7.562100192022e+00 0.000000000000e+00 
7.589845835788e+00 0.000000000000e+00 
7.874194034612e+00 0.000000000000e+00 
7.901772575687e+00 0.000000000000e+00 
7.929434541394e+00 0.000000000000e+00 
7.957180185160e+00 0.000000000000e+00 
8.237855041373e+00 0.000000000000e+00 
8.265433582449e+00 0.000000000000e+00 
8.293095548155e+00 0.000000000000e+00 
8.320841191921e+00 0.000000000000e+00 
8.597879436550e+00 0.000000000000e+00 
8.625457977625e+00 0.000000000000e+00 
8.653119943331e+00 0.000000000000e+00 
8.680865587097e+00 0.000000000000e+00 
8.954303588661e+00 0.000000000000e+00 
8.981882129737e+00 0.000000000000e+00 
9.009544095443e+00 0.000000000000e+00 
9.037289739209e+00 0.000000000000e+00 
9.307163500521e+00 0.000000000000e+00 
9.334742041597e+00 0.000000000000e+00 
9.362404007303e+00 0.000000000000e+00 
9.390149651069e+00 0.000000000000e+00 
9.656494813993e+00 0.000000000000e+00 
9.684073355069e+00 0.000000000000e+00 
9.711735320775e+00 0.000000000000e+00 
9.739480964541e+00 0.000000000000e+00 
1.000233281448e+01 0.000000000000e+00 
1.002991135556e+01 0.000000000000e+00 
1.005757332127e+01 0.000000000000e+00 
1.008531896503e+01 0.000000000000e+00 
1.034471243292e+01 0.000000000000e+00 
1.037229097399e+01 0.000000000000e+00 
1.039995293970e+01 0.000000000000e+00 
1.042769858347e+01 0.000000000000e+00 
1.068366825536e+01 0.000000000000e+00 
1.071124679644e+01 0.000000000000e+00 
1.073890876215e+01 0.000000000000e+00 
1.076665440591e+01 0.000000000000e+00 
1.101923451950e+01 0.000000000000e+00 
1.104681306057e+01 0.000000000000e+00 
1.107447502628e+01 0.000000000000e+00 
1.110222067004e+01 0.000000000000e+00 
1.135144512160e+01 0.000000000000e+00 
1.137902366268e+01 0.000000000000e+00 
1.140668562839e+01 0.000000000000e+00 
1.143443127215e+01 0.000000000000e+00 
1.168033361809e+01 0.000000000000e+00 
1.170791215916e+01 0.000000000000e+00 
1.173557412487e+01 0.000000000000e+00 
1.176331976863e+01 0.000000000000e+00 
1.200593322974e+01 0.000000000000e+00 
1.203351177082e+01 0.000000000000e+00 
1.206117373652e+01 0.000000000000e+00 
1.208891938029e+01 0.000000000000e+00 
1.232827684572e+01 0.000000000000e+00 
1.235585538680e+01 0.000000000000e+00 
1.238351735251e+01 0.000000000000e+00 
1.241126299627e+01 0.000000000000e+00 
1.264739702507e+01 0.000000000000e+00 
1.267497556615e+01 0.000000000000e+00 
1.270263753186e+01 0.000000000000e+00 
1.273038317562e+01 0.000000000000e+00 
1.296332600319e+01 0.000000000000e+00 
1.299090454427e+01 0.000000000000e+00 
1.301856650997e+01 0.000000000000e+00 
1.304631215374e+01 0.000000000000e+00 
1.327609569054e+01 0.000000000000e+00 
1.330367423162e+01 0.000000000000e+00 
1.333133619732e+01 0.000000000000e+00 
1.335908184109e+01 0.000000000000e+00 
1.358573768173e+01 0.000000000000e+00 
1.361331622280e+01 0.000000000000e+00 
1.364097818851e+01 0.000000000000e+00 
1.366872383228e+01 0.000000000000e+00 
1.389228325395e+01 0.000000000000e+00 
1.391986179502e+01 0.000000000000e+00 
1.394752376073e+01 0.000000000000e+00 
1.397526940449e+01 0.000000000000e+00 
1.419576336815e+01 0.000000000000e+00 
1.422334190922e+01 0.000000000000e+00 
1.425100387493e+01 0.000000000000e+00 
1.427874951869e+01 0.000000000000e+00 
1.449620868051e+01 0.000000000000e+00 
1.452378722159e+01 0.000000000000e+00 
1.455144918730e+01 0.000000000000e+00 
1.457919483106e+01 0.000000000000e+00 
1.479364954073e+01 0.000000000000e+00 
1.482122808180e+01 0.000000000000e+00 
1.484889004751e+01 0.000000000000e+00 
1.487663569127e+01 0.000000000000e+00 
1.508811599291e+01 0.000000000000e+00 
1.511569453399e+01 0.000000000000e+00 
1.514335649969e+01 0.000000000000e+00 
1.517110214346e+01 0.000000000000e+00 
1.537963778169e+01 0.000000000000e+00 
1.540721632276e+01 0.000000000000e+00 
1.543487828847e+01 0.000000000000e+00 
1.546262393224e+01 0.000000000000e+00 
1.566824435294e+01 0.000000000000e+00 
1.569582289402e+01 0.000000000000e+00 
1.572348485973e+01 0.000000000000e+00 
1.575123050349e+01 0.000000000000e+00 
1.595396485719e+01 0.000000000000e+00 
1.598154339826e+01 0.000000000000e+00 
1.600920536397e+01 0.000000000000e+00 
1.603695100773e+01 0.000000000000e+00 
1.623682815542e+01 0.000000000000e+00 
1.626440669649e+01 0.000000000000e+00 
1.629206866220e+01 0.000000000000e+00 
1.631981430596e+01 0.000000000000e+00 
1.651686281969e+01 0.000000000000e+00 
1.654444136077e+01 0.000000000000e+00 
1.657210332647e+01 0.000000000000e+00 
1.659984897024e+01 0.000000000000e+00 
1.679409713633e+01 0.000000000000e+00 
1.682167567740e+01 0.000000000000e+00 
1.684933764311e+01 0.000000000000e+00 
1.687708328687e+01 0.000000000000e+00 
1.706855911154e+01 0.000000000000e+00 
1.709613765262e+01 0.000000000000e+00 
1.712379961832e+01 0.000000000000e+00 
1.715154526209e+01 0.000000000000e+00 
1.734027646927e+01 0.000000000000e+00 
1.736785501035e+01 0.000000000000e+00 
1.739551697605e+01 0.000000000000e+00 
1.742326261982e+01 0.000000000000e+00 
1.760927665419e+01 0.000000000000e+00 
1.763685519526e+01 0.000000000000e+00 
1.766451716097e+01 0.000000000000e+00 
1.769226280473e+01 0.000000000000e+00 
1.787558683722e+01 0.000000000000e+00 
1.790316537829e+01 0.000000000000e+00 
1.793082734400e+01 0.000000000000e+00 
1.795857298777e+01 0.000000000000e+00 
1.813923391583e+01 0.000000000000e+00 
1.816681245690e+01 0.000000000000e+00 
1.819447442261e+01 0.000000000000e+00 
1.822222006637e+01 0.000000000000e+00 
1.840024452208e+01 0.000000000000e+00 
1.842782306315e+01 0.000000000000e+00 
1.845548502886e+01 0.000000000000e+00 
1.848323067262e+01 0.000000000000e+00 
1.865864502266e+01 0.000000000000e+00 
1.868622356374e+01 0.000000000000e+00 
1.871388552944e+01 0.000000000000e+00 
1.874163117321e+01 0.000000000000e+00 
1.891446151909e+01 0.000000000000e+00 
1.894204006017e+01 0.000000000000e+00 
1.896970202588e+01 0.000000000000e+00 
1.899744766964e+01 0.000000000000e+00 
1.916771985029e+01 0.000000000000e+00 
1.919529839136e+01 0.000000000000e+00 
1.922296035707e+01 0.000000000000e+00 
1.925070600084e+01 0.000000000000e+00 
1.941844559788e+01 0.000000000000e+00 
1.944602413895e+01 0.000000000000e+00 
1.947368610466e+01 0.000000000000e+00 
1.950143174842e+01 0.000000000000e+00 
1.966666408864e+01 0.000000000000e+00 
1.969424262972e+01 0.000000000000e+00 
1.972190459542e+01 0.000000000000e+00 
1.974965023919e+01 0.000000000000e+00 
1.991240039448e+01 0.000000000000e+00 
1.993997893556e+01 0.000000000000e+00 
1.996764090126e+01 0.000000000000e+00 
1.999538654503e+01 0.000000000000e+00 
2.015567933741e+01 0.000000000000e+00 
2.018325787849e+01 0.000000000000e+00 
2.021091984419e+01 0.000000000000e+00 
2.023866548796e+01 0.000000000000e+00 
2.039652549202e+01 0.000000000000e+00 
2.042410403310e+01 0.000000000000e+00 
2.045176599880e+01 0.000000000000e+00 
2.047951164257e+01 0.000000000000e+00 
2.063496318511e+01 0.000000000000e+00 
2.066254172618e+01 0.000000000000e+00 
2.069020369189e+01 0.000000000000e+00 
2.071794933566e+01 0.000000000000e+00 
2.087101650072e+01 0.000000000000e+00 
2.089859504179e+01 0.000000000000e+00 
2.092625700750e+01 0.000000000000e+00 
2.095400265126e+01 0.000000000000e+00 
2.110470928226e+01 0.000000000000e+00 
2.113228782334e+01 0.000000000000e+00 
2.115994978905e+01 0.000000000000e+00 
2.118769543281e+01 0.000000000000e+00 
2.133606513484e+01 0.000000000000e+00 
2.136364367591e+01 0.000000000000e+00 
2.139130564162e+01 0.000000000000e+00 
2.141905128538e+01 0.000000000000e+00 
2.156510742986e+01 0.000000000000e+00 
2.159268597094e+01 0.000000000000e+00 
2.162034793664e+01 0.000000000000e+00 
2.164809358041e+01 0.000000000000e+00 
2.179185930202e+01 0.000000000000e+00 
2.181943784309e+01 0.000000000000e+00 
2.184709980880e+01 0.000000000000e+00 
2.187484545256e+01 0.000000000000e+00 
2.201634365653e+01 0.000000000000e+00 
2.204392219761e+01 0.000000000000e+00 
2.207158416331e+01 0.000000000000e+00 
2.209932980708e+01 0.000000000000e+00 
2.223858316853e+01 0.000000000000e+00 
2.226616170960e+01 0.000000000000e+00 
2.229382367531e+01 0.000000000000e+00 
2.232156931907e+01 0.000000000000e+00 
2.245860028505e+01 0.000000000000e+00 
2.248617882613e+01 0.000000000000e+00 
2.251384079183e+01 0.000000000000e+00 
2.254158643560e+01 0.000000000000e+00 
2.267641722955e+01 0.000000000000e+00 
2.270399577063e+01 0.000000000000e+00 
2.273165773634e+01 0.000000000000e+00 
2.275940338010e+01 0.000000000000e+00 
2.289205600381e+01 0.000000000000e+00 
2.291963454488e+01 0.000000000000e+00 
2.294729651059e+01 0.000000000000e+00 
2.297504215435e+01 0.000000000000e+00 
2.310553838966e+01 0.000000000000e+00 
2.313311693074e+01 0.000000000000e+00 
2.316077889644e+01 0.000000000000e+00 
2.318852454021e+01 0.000000000000e+00 
2.331688595089e+01 0.000000000000e+00 
2.334446449196e+01 0.000000000000e+00 
2.337212645767e+01 0.000000000000e+00 
2.339987210144e+01 0.000000000000e+00 
2.352612003749e+01 0.000000000000e+00 
2.355369857857e+01 0.000000000000e+00 
2.358136054427e+01 0.000000000000e+00 
2.360910618804e+01 0.000000000000e+00 
2.373326178477e+01 0.000000000000e+00 
2.376084032585e+01 0.000000000000e+00 
2.378850229155e+01 0.000000000000e+00 
2.381624793532e+01 0.000000000000e+00 
2.393833211501e+01 0.000000000000e+00 
2.396591065608e+01 0.000000000000e+00 
2.399357262179e+01 0.000000000000e+00 
2.402131826556e+01 0.000000000000e+00 
2.414135174170e+01 0.000000000000e+00 
2.416893028277e+01 0.000000000000e+00 
2.419659224848e+01 0.000000000000e+00 
2.422433789225e+01 0.000000000000e+00 
2.434234117109e+01 0.000000000000e+00 
2.436991971217e+01 0.000000000000e+00 
2.439758167787e+01 0.000000000000e+00 
2.442532732164e+01 0.000000000000e+00 
2.454132070635e+01 0.000000000000e+00 
2.456889924743e+01 0.000000000000e+00 
2.459656121314e+01 0.000000000000e+00 
2.462430685690e+01 0.000000000000e+00 
2.473831044639e+01 0.000000000000e+00 
2.476588898746e+01 0.000000000000e+00 
2.479355095317e+01 0.000000000000e+00 
2.482129659693e+01 0.000000000000e+00 
2.493333028991e+01 0.000000000000e+00 
2.496090883099e+01 0.000000000000e+00 
2.498857079669e+01 0.000000000000e+00 
2.501631644046e+01 0.000000000000e+00 
2.512639993689e+01 0.000000000000e+00 
2.515397847797e+01 0.000000000000e+00 
2.518164044367e+01 0.000000000000e+00 
2.520938608744e+01 0.000000000000e+00 
2.531753888731e+01 0.000000000000e+00 
2.534511742839e+01 0.000000000000e+00 
2.537277939409e+01 0.000000000000e+00 
2.540052503786e+01 0.000000000000e+00 
2.550676644750e+01 0.000000000000e+00 
2.553434498857e+01 0.000000000000e+00 
2.556200695428e+01 0.000000000000e+00 
2.558975259804e+01 0.000000000000e+00 
2.569410173175e+01 0.000000000000e+00 
2.572168027282e+01 0.000000000000e+00 
2.574934223853e+01 0.000000000000e+00 
2.577708788229e+01 0.000000000000e+00 
2.587956366334e+01 0.000000000000e+00 
2.590714220442e+01 0.000000000000e+00 
2.593480417012e+01 0.000000000000e+00 
2.596254981389e+01 0.000000000000e+00 
2.606317097581e+01 0.000000000000e+00 
2.609074951689e+01 0.000000000000e+00 
2.611841148259e+01 0.000000000000e+00 
2.614615712636e+01 0.000000000000e+00 
2.624494221408e+01 0.000000000000e+00 
2.627252075516e+01 0.000000000000e+00 
2.630018272086e+01 0.000000000000e+00 
2.632792836463e+01 0.000000000000e+00 
2.642489573827e+01 0.000000000000e+00 
2.645247427934e+01 0.000000000000e+00 
2.648013624505e+01 0.000000000000e+00 
2.650788188882e+01 0.000000000000e+00 
2.660304972733e+01 0.000000000000e+00 
2.663062826840e+01 0.000000000000e+00 
2.665829023411e+01 0.000000000000e+00 
2.668603587788e+01 0.000000000000e+00 
2.677942217749e+01 0.000000000000e+00 
2.680700071857e+01 0.000000000000e+00 
2.683466268427e+01 0.000000000000e+00 
2.686240832804e+01 0.000000000000e+00 
2.695403090330e+01 0.000000000000e+00 
2.698160944437e+01 0.000000000000e+00 
2.700927141008e+01 0.000000000000e+00 
2.703701705385e+01 0.000000000000e+00 
2.712689354121e+01 0.000000000000e+00 
2.715447208229e+01 0.000000000000e+00 
2.718213404800e+01 0.000000000000e+00 
2.720987969176e+01 0.000000000000e+00 
2.729802755317e+01 0.000000000000e+00 
2.732560609425e+01 0.000000000000e+00 
2.735326805995e+01 0.000000000000e+00 
2.738101370372e+01 0.000000000000e+00 
2.746745022484e+01 0.000000000000e+00 
2.749502876592e+01 0.000000000000e+00 
2.752269073162e+01 0.000000000000e+00 
2.755043637539e+01 0.000000000000e+00 
2.763517866917e+01 0.000000000000e+00 
2.766275721025e+01 0.000000000000e+00 
2.769041917595e+01 0.000000000000e+00 
2.771816481972e+01 0.000000000000e+00 
2.780122982979e+01 0.000000000000e+00 
2.782880837086e+01 0.000000000000e+00 
2.785647033657e+01 0.000000000000e+00 
2.788421598034e+01 0.000000000000e+00 
2.796562047921e+01 0.000000000000e+00 
2.799319902029e+01 0.000000000000e+00 
2.802086098599e+01 0.000000000000e+00 
2.804860662976e+01 0.000000000000e+00 
2.812836722224e+01 0.000000000000e+00 
2.815594576331e+01 0.000000000000e+00 
2.818360772902e+01 0.000000000000e+00 
2.821135337279e+01 0.000000000000e+00 
2.828948649667e+01 0.000000000000e+00 
2.831706503774e+01 0.000000000000e+00 
2.834472700345e+01 0.000000000000e+00 
2.837247264722e+01 0.000000000000e+00 
2.844899457929e+01 0.000000000000e+00 
2.847657312036e+01 0.000000000000e+00 
2.850423508607e+01 0.000000000000e+00 
2.853198072983e+01 0.000000000000e+00 
2.860690758118e+01 0.000000000000e+00 
2.863448612226e+01 0.000000000000e+00 
2.866214808796e+01 0.000000000000e+00 
2.868989373173e+01 0.000000000000e+00 
2.876324145115e+01 0.000000000000e+00 
2.879081999223e+01 0.000000000000e+00 
2.881848195794e+01 0.000000000000e+00 
2.884622760170e+01 0.000000000000e+00 
2.891801198406e+01 0.000000000000e+00 
2.894559052514e+01 0.000000000000e+00 
2.897325249084e+01 0.000000000000e+00 
2.900099813461e+01 0.000000000000e+00 
2.907123481353e+01 0.000000000000e+00 
2.909881335461e+01 0.000000000000e+00 
2.912647532032e+01 0.000000000000e+00 
2.915422096408e+01 0.000000000000e+00 
2.922292541518e+01 0.000000000000e+00 
2.925050395626e+01 0.000000000000e+00 
2.927816592196e+01 0.000000000000e+00 
2.930591156573e+01 0.000000000000e+00 
2.937309910971e+01 0.000000000000e+00 
2.940067765078e+01 0.000000000000e+00 
2.942833961649e+01 0.000000000000e+00 
2.945608526025e+01 0.000000000000e+00 
2.952177106602e+01 0.000000000000e+00 
2.954934960710e+01 0.000000000000e+00 
2.957701157280e+01 0.000000000000e+00 
2.960475721657e+01 0.000000000000e+00 
2.966895630164e+01 0.000000000000e+00 
2.969653484272e+01 0.000000000000e+00 
2.972419680842e+01 0.000000000000e+00 
2.975194245219e+01 0.000000000000e+00 
2.981466968576e+01 0.000000000000e+00 
2.984224822683e+01 0.000000000000e+00 
2.986991019254e+01 0.000000000000e+00 
2.989765583631e+01 0.000000000000e+00 
2.995892593693e+01 0.000000000000e+00 
2.998650447801e+01 0.000000000000e+00 
3.001416644371e+01 0.000000000000e+00 
3.004191208748e+01 0.000000000000e+00 
3.010173962355e+01 0.000000000000e+00 
3.012931816462e+01 0.000000000000e+00 
3.015698013033e+01 0.000000000000e+00 
3.018472577409e+01 0.000000000000e+00 
3.024312517457e+01 0.000000000000e+00 
3.027070371565e+01 0.000000000000e+00 
3.029836568135e+01 0.000000000000e+00 
3.032611132512e+01 0.000000000000e+00 
3.038309687192e+01 0.000000000000e+00 
3.041067541300e+01 0.000000000000e+00 
3.043833737870e+01 0.000000000000e+00 
3.046608302247e+01 0.000000000000e+00 
3.052166885084e+01 0.000000000000e+00 
3.054924739191e+01 0.000000000000e+00 
3.057690935762e+01 0.000000000000e+00 
3.060465500138e+01 0.000000000000e+00 
3.065885511057e+01 0.000000000000e+00 
3.068643365164e+01 0.000000000000e+00 
3.071409561735e+01 0.000000000000e+00 
3.074184126112e+01 0.000000000000e+00 
3.079466950927e+01 0.000000000000e+00 
3.082224805035e+01 0.000000000000e+00 
3.084991001605e+01 0.000000000000e+00 
3.087765565982e+01 0.000000000000e+00 
3.092912576165e+01 0.000000000000e+00 
3.095670430273e+01 0.000000000000e+00 
3.098436626843e+01 0.000000000000e+00 
3.101211191220e+01 0.000000000000e+00 
3.106223744961e+01 0.000000000000e+00 
3.108981599069e+01 0.000000000000e+00 
3.111747795639e+01 0.000000000000e+00 
3.114522360016e+01 0.000000000000e+00 
3.119401802227e+01 0.000000000000e+00 
3.122159656335e+01 0.000000000000e+00 
3.124925852905e+01 0.000000000000e+00 
3.127700417282e+01 0.000000000000e+00 
3.132448079087e+01 0.000000000000e+00 
3.135205933195e+01 0.000000000000e+00 
3.137972129765e+01 0.000000000000e+00 
3.140746694142e+01 0.000000000000e+00 
3.145363893147e+01 0.000000000000e+00 
3.148121747254e+01 0.000000000000e+00 
3.150887943825e+01 0.000000000000e+00 
3.153662508202e+01 0.000000000000e+00 
3.158150549026e+01 0.000000000000e+00 
3.160908403133e+01 0.000000000000e+00 
3.163674599704e+01 0.000000000000e+00 
3.166449164081e+01 0.000000000000e+00 
3.170809338352e+01 0.000000000000e+00 
3.173567192460e+01 0.000000000000e+00 
3.176333389030e+01 0.000000000000e+00 
3.179107953407e+01 0.000000000000e+00 
3.183341539766e+01 0.000000000000e+00 
3.186099393874e+01 0.000000000000e+00 
3.188865590444e+01 0.000000000000e+00 
3.191640154821e+01 0.000000000000e+00 
3.195748419175e+01 0.000000000000e+00 
3.198506273282e+01 0.000000000000e+00 
3.201272469853e+01 0.000000000000e+00 
3.204047034230e+01 0.000000000000e+00 
3.208031229749e+01 0.000000000000e+00 
3.210789083857e+01 0.000000000000e+00 
3.213555280427e+01 0.000000000000e+00 
3.216329844804e+01 0.000000000000e+00 
3.220191212175e+01 0.000000000000e+00 
3.222949066283e+01 0.000000000000e+00 
3.225715262854e+01 0.000000000000e+00 
3.228489827230e+01 0.000000000000e+00 
3.232229594905e+01 0.000000000000e+00 
3.234987449013e+01 0.000000000000e+00 
3.237753645584e+01 0.000000000000e+00 
3.240528209960e+01 0.000000000000e+00 
3.244147593878e+01 0.000000000000e+00 
3.246905447986e+01 0.000000000000e+00 
3.249671644557e+01 0.000000000000e+00 
3.252446208933e+01 0.000000000000e+00 
3.255946412774e+01 0.000000000000e+00 
3.258704266881e+01 0.000000000000e+00 
3.261470463452e+01 0.000000000000e+00 
3.264245027828e+01 0.000000000000e+00 
3.267627243510e+01 0.000000000000e+00 
3.270385097617e+01 0.000000000000e+00 
3.273151294188e+01 0.000000000000e+00 
3.275925858565e+01 0.000000000000e+00 
3.279191265963e+01 0.000000000000e+00 
3.281949120070e+01 0.000000000000e+00 
3.284715316641e+01 0.000000000000e+00 
3.287489881017e+01 0.000000000000e+00 
3.290639648205e+01 0.000000000000e+00 
3.293397502312e+01 0.000000000000e+00 
3.296163698883e+01 0.000000000000e+00 
3.298938263260e+01 0.000000000000e+00 
3.301973546478e+01 0.000000000000e+00 
3.304731400586e+01 0.000000000000e+00 
3.307497597156e+01 0.000000000000e+00 
3.310272161533e+01 0.000000000000e+00 
3.313194105694e+01 0.000000000000e+00 
3.315951959801e+01 0.000000000000e+00 
3.318718156372e+01 0.000000000000e+00 
3.321492720748e+01 0.000000000000e+00 
3.324302459392e+01 0.000000000000e+00 
3.327060313499e+01 0.000000000000e+00 
3.329826510070e+01 0.000000000000e+00 
3.332601074447e+01 0.000000000000e+00 
3.335299729456e+01 0.000000000000e+00 
3.338057583563e+01 0.000000000000e+00 
3.340823780134e+01 0.000000000000e+00 
3.343598344511e+01 0.000000000000e+00 
3.346187026859e+01 0.000000000000e+00 
3.348944880967e+01 0.000000000000e+00 
3.351711077537e+01 0.000000000000e+00 
3.354485641914e+01 0.000000000000e+00 
3.356965451364e+01 0.000000000000e+00 
3.359723305471e+01 0.000000000000e+00 
3.362489502042e+01 0.000000000000e+00 
3.365264066418e+01 0.000000000000e+00 
3.367636091483e+01 0.000000000000e+00 
3.370393945591e+01 0.000000000000e+00 
3.373160142162e+01 0.000000000000e+00 
3.375934706538e+01 0.000000000000e+00 
3.378200025230e+01 0.000000000000e+00 
3.380957879337e+01 0.000000000000e+00 
3.383724075908e+01 0.000000000000e+00 
3.386498640285e+01 0.000000000000e+00 
3.388658319797e+01 0.000000000000e+00 
3.391416173905e+01 0.000000000000e+00 
3.394182370476e+01 0.000000000000e+00 
3.396956934852e+01 0.000000000000e+00 
3.399012031263e+01 0.000000000000e+00 
3.401769885371e+01 0.000000000000e+00 
3.404536081941e+01 0.000000000000e+00 
3.407310646318e+01 0.000000000000e+00 
3.409262205588e+01 0.000000000000e+00 
3.412020059695e+01 0.000000000000e+00 
3.414786256266e+01 0.000000000000e+00 
3.417560820642e+01 0.000000000000e+00 
3.419409878291e+01 0.000000000000e+00 
3.422167732398e+01 0.000000000000e+00 
3.424933928969e+01 0.000000000000e+00 
3.427708493346e+01 0.000000000000e+00 
3.429456074148e+01 0.000000000000e+00 
3.432213928256e+01 0.000000000000e+00 
3.434980124827e+01 0.000000000000e+00 
3.437754689203e+01 0.000000000000e+00 
3.439401808183e+01 0.000000000000e+00 
3.442159662290e+01 0.000000000000e+00 
3.444925858861e+01 0.000000000000e+00 
3.447700423237e+01 0.000000000000e+00 
3.449248085072e+01 0.000000000000e+00 
3.452005939180e+01 0.000000000000e+00 
3.454772135751e+01 0.000000000000e+00 
3.457546700127e+01 0.000000000000e+00 
3.458995899107e+01 0.000000000000e+00 
3.461753753215e+01 0.000000000000e+00 
3.464519949785e+01 0.000000000000e+00 
3.467294514162e+01 0.000000000000e+00 
3.468646234905e+01 0.000000000000e+00 
3.471404089013e+01 0.000000000000e+00 
3.474170285583e+01 0.000000000000e+00 
3.476944849960e+01 0.000000000000e+00 
3.478200067353e+01 0.000000000000e+00 
3.480957921460e+01 0.000000000000e+00 
3.483724118031e+01 0.000000000000e+00 
3.486498682408e+01 0.000000000000e+00 
3.487658361535e+01 0.000000000000e+00 
3.490416215642e+01 0.000000000000e+00 
3.493182412213e+01 0.000000000000e+00 
3.495956976589e+01 0.000000000000e+00 
3.497022072670e+01 0.000000000000e+00 
3.499779926778e+01 0.000000000000e+00 
3.502546123349e+01 0.000000000000e+00 
3.505320687725e+01 0.000000000000e+00 
3.506292146572e+01 0.000000000000e+00 
3.509050000680e+01 0.000000000000e+00 
3.511816197250e+01 0.000000000000e+00 
3.514590761627e+01 0.000000000000e+00 
3.515469519830e+01 0.000000000000e+00 
3.518227373938e+01 0.000000000000e+00 
3.520993570508e+01 0.000000000000e+00 
3.523768134885e+01 0.000000000000e+00 
3.524555119477e+01 0.000000000000e+00 
3.527312973585e+01 0.000000000000e+00 
3.530079170155e+01 0.000000000000e+00 
3.532853734532e+01 0.000000000000e+00 
3.533549863181e+01 0.000000000000e+00 
3.536307717288e+01 0.000000000000e+00 
3.539073913859e+01 0.000000000000e+00 
3.541848478236e+01 0.000000000000e+00 
3.542454659427e+01 0.000000000000e+00 
3.545212513534e+01 0.000000000000e+00 
3.547978710105e+01 0.000000000000e+00 
3.550753274481e+01 0.000000000000e+00 
3.551270407703e+01 0.000000000000e+00 
3.554028261811e+01 0.000000000000e+00 
3.556794458382e+01 0.000000000000e+00 
3.559569022758e+01 0.000000000000e+00 
3.559997998419e+01 0.000000000000e+00 
3.562755852527e+01 0.000000000000e+00 
3.565522049097e+01 0.000000000000e+00 
3.568296613474e+01 0.000000000000e+00 
3.568638313086e+01 0.000000000000e+00 
3.571396167194e+01 0.000000000000e+00 
3.574162363764e+01 0.000000000000e+00 
3.576936928141e+01 0.000000000000e+00 
3.577192224756e+01 0.000000000000e+00 
3.579950078864e+01 0.000000000000e+00 
3.582716275435e+01 0.000000000000e+00 
3.585490839811e+01 0.000000000000e+00 
3.585660597409e+01 0.000000000000e+00 
3.588418451517e+01 0.000000000000e+00 
3.591184648088e+01 0.000000000000e+00 
3.593959212464e+01 0.000000000000e+00 
3.594044286135e+01 0.000000000000e+00 
3.596802140243e+01 0.000000000000e+00 
3.599568336813e+01 0.000000000000e+00 
3.602342901190e+01 0.000000000000e+00 
3.602344137828e+01 0.000000000000e+00 
3.605101991936e+01 0.000000000000e+00 
3.607868188506e+01 0.000000000000e+00 
3.610560991092e+01 0.000000000000e+00 
3.610642752883e+01 0.000000000000e+00 
3.613318845200e+01 0.000000000000e+00 
3.616085041770e+01 0.000000000000e+00 
3.618695675886e+01 0.000000000000e+00 
3.618859606147e+01 0.000000000000e+00 
3.621453529993e+01 0.000000000000e+00 
3.624219726564e+01 0.000000000000e+00 
3.626749013957e+01 0.000000000000e+00 
3.626994290940e+01 0.000000000000e+00 
3.629506868065e+01 0.000000000000e+00 
3.632273064635e+01 0.000000000000e+00 
3.634721818742e+01 0.000000000000e+00 
3.635047629012e+01 0.000000000000e+00 
3.637479672850e+01 0.000000000000e+00 
3.640245869420e+01 0.000000000000e+00 
3.642614895273e+01 0.000000000000e+00 
3.643020433797e+01 0.000000000000e+00 
3.645372749380e+01 0.000000000000e+00 
3.648138945951e+01 0.000000000000e+00 
3.650429040864e+01 0.000000000000e+00 
3.650913510328e+01 0.000000000000e+00 
3.653186894971e+01 0.000000000000e+00 
3.655953091542e+01 0.000000000000e+00 
3.658165045006e+01 0.000000000000e+00 
3.658727655919e+01 0.000000000000e+00 
3.660922899113e+01 0.000000000000e+00 
3.663689095684e+01 0.000000000000e+00 
3.665823689265e+01 0.000000000000e+00 
3.666463660061e+01 0.000000000000e+00 
3.668581543372e+01 0.000000000000e+00 
3.671347739943e+01 0.000000000000e+00 
3.673405747176e+01 0.000000000000e+00 
3.674122304319e+01 0.000000000000e+00 
3.676163601284e+01 0.000000000000e+00 
3.678929797855e+01 0.000000000000e+00 
3.680911984408e+01 0.000000000000e+00 
3.681704362231e+01 0.000000000000e+00 
3.683669838516e+01 0.000000000000e+00 
3.686436035087e+01 0.000000000000e+00 
3.688343159174e+01 0.000000000000e+00 
3.689210599463e+01 0.000000000000e+00 
3.691101013282e+01 0.000000000000e+00 
3.693867209853e+01 0.000000000000e+00 
3.695700022385e+01 0.000000000000e+00 
3.696641774229e+01 0.000000000000e+00 
3.698457876492e+01 0.000000000000e+00 
3.701224073063e+01 0.000000000000e+00 
3.703998637440e+01 0.000000000000e+00 
 TITLE = "Profiles along polylines"
 VARIABLES = "DIST" "HEAD" 
 ZONE T="TIME=1.797693134862e+308"
1.957000223849e+00 3.440821571839e+01 
1.984578764925e+00 3.440747036987e+01 
2.012240730631e+00 3.440671228675e+01 
2.039986374397e+00 3.440594136687e+01 
2.379833168115e+00 3.440808258476e+01 
2.407411709190e+00 3.440733713633e+01 
2.435073674896e+00 3.440657895301e+01 
2.462819318662e+00 3.440580793263e+01 
2.798437785254e+00 3.440795229026e+01 
2.826016326329e+00 3.440720674295e+01 
2.853678292036e+00 3.440644846043e+01 
2.881423935801e+00 3.440567734055e+01 
3.212856355124e+00 3.440782477742e+01 
3.240434896199e+00 3.440707913221e+01 
3.268096861905e+00 3.440632075149e+01 
3.295842505671e+00 3.440554953311e+01 
3.623130739143e+00 3.440769998886e+01 
3.650709280218e+00 3.440695424673e+01 
3.678371245925e+00 3.440619576880e+01 
3.706116889690e+00 3.440542445292e+01 
4.029302380796e+00 3.440757786830e+01 
4.056880921871e+00 3.440683203023e+01 
4.084542887578e+00 3.440607345607e+01 
4.112288531343e+00 3.440530204365e+01 
4.431412306218e+00 3.440745836067e+01 
4.458990847293e+00 3.440671242763e+01 
4.486652812999e+00 3.440595375820e+01 
4.514398456765e+00 3.440518225023e+01 
4.829501132466e+00 3.440734141208e+01 
4.857079673542e+00 3.440659538502e+01 
4.884741639248e+00 3.440583662129e+01 
4.912487283014e+00 3.440506501873e+01 
5.223609070479e+00 3.440722696975e+01 
5.251187611554e+00 3.440648084963e+01 
5.278849577261e+00 3.440572199255e+01 
5.306595221027e+00 3.440495029634e+01 
5.613775927960e+00 3.440711498201e+01 
5.641354469036e+00 3.440636876976e+01 
5.669016434742e+00 3.440560982026e+01 
5.696762078508e+00 3.440483803135e+01 
6.000041114820e+00 3.440700539822e+01 
6.027619655895e+00 3.440625909476e+01 
6.055281621602e+00 3.440550005378e+01 
6.083027265368e+00 3.440472817310e+01 
6.382443651112e+00 3.440689816878e+01 
6.410022192187e+00 3.440615177504e+01 
6.437684157894e+00 3.440539264349e+01 
6.465429801659e+00 3.440462067197e+01 
6.761022161750e+00 3.440679324510e+01 
6.788600702826e+00 3.440604676199e+01 
6.816262668532e+00 3.440528754079e+01 
6.844008312298e+00 3.440451547934e+01 
7.135814887095e+00 3.440669057959e+01 
7.163393428170e+00 3.440594400800e+01 
7.191055393876e+00 3.440518469805e+01 
7.218801037642e+00 3.440441254757e+01 
7.506859685240e+00 3.440659012559e+01 
7.534438226315e+00 3.440584346642e+01 
7.562100192022e+00 3.440508406861e+01 
7.589845835788e+00 3.440431182999e+01 