 TITLE = "Profiles along polylines"
 VARIABLES = "DIST" "HEAD" 
 ZONE T="TIME=0.000000000000e+00"
1.143906126902e+01 0.000000000000e+00 
1.154713149120e+01 0.000000000000e+00 
1.186189421329e+01 0.000000000000e+00 
1.196996443547e+01 0.000000000000e+00 
1.228049883043e+01 0.000000000000e+00 
1.238856905261e+01 0.000000000000e+00 
1.269491740030e+01 0.000000000000e+00 
1.280298762248e+01 0.000000000000e+00 
1.310519178432e+01 0.000000000000e+00 
1.321326200650e+01 0.000000000000e+00 
1.351136342597e+01 0.000000000000e+00 
1.361943364815e+01 0.000000000000e+00 
1.391347335140e+01 0.000000000000e+00 
1.402154357357e+01 0.000000000000e+00 
1.431156217765e+01 0.000000000000e+00 
1.441963239982e+01 0.000000000000e+00 
1.470567011566e+01 0.000000000000e+00 
1.481374033784e+01 0.000000000000e+00 
1.509583697314e+01 0.000000000000e+00 
1.520390719532e+01 0.000000000000e+00 
1.548210216000e+01 0.000000000000e+00 
1.559017238218e+01 0.000000000000e+00 
1.586450469629e+01 0.000000000000e+00 
1.597257491847e+01 0.000000000000e+00 
1.624308320693e+01 0.000000000000e+00 
1.635115342911e+01 0.000000000000e+00 
1.661787593228e+01 0.000000000000e+00 
1.672594615445e+01 0.000000000000e+00 
1.698892073042e+01 0.000000000000e+00 
1.709699095260e+01 0.000000000000e+00 
1.735625507980e+01 0.000000000000e+00 
1.746432530197e+01 0.000000000000e+00 
1.771991608656e+01 0.000000000000e+00 
1.782798630873e+01 0.000000000000e+00 
1.807994048174e+01 0.000000000000e+00 
1.818801070391e+01 0.000000000000e+00 
1.843636463385e+01 0.000000000000e+00 
1.854443485602e+01 0.000000000000e+00 
1.878922454571e+01 0.000000000000e+00 
1.889729476788e+01 0.000000000000e+00 
1.913855585918e+01 0.000000000000e+00 
1.924662608136e+01 0.000000000000e+00 
1.948439385967e+01 0.000000000000e+00 
1.959246408185e+01 0.000000000000e+00 
1.982677347811e+01 0.000000000000e+00 
1.993484370028e+01 0.000000000000e+00 
2.016572930055e+01 0.000000000000e+00 
2.027379952273e+01 0.000000000000e+00 
2.050129556469e+01 0.000000000000e+00 
2.060936578686e+01 0.000000000000e+00 
2.083350616679e+01 0.000000000000e+00 
2.094157638897e+01 0.000000000000e+00 
2.116239466328e+01 0.000000000000e+00 
2.127046488545e+01 0.000000000000e+00 
2.148799427493e+01 0.000000000000e+00 
2.159606449711e+01 0.000000000000e+00 
2.181033789092e+01 0.000000000000e+00 
2.191840811309e+01 0.000000000000e+00 
2.212945807027e+01 0.000000000000e+00 
2.223752829244e+01 0.000000000000e+00 
2.244538704838e+01 0.000000000000e+00 
2.255345727056e+01 0.000000000000e+00 
2.275815673573e+01 0.000000000000e+00 
2.286622695791e+01 0.000000000000e+00 
2.306779872692e+01 0.000000000000e+00 
2.317586894910e+01 0.000000000000e+00 
2.337434429914e+01 0.000000000000e+00 
2.348241452132e+01 0.000000000000e+00 
2.367782441334e+01 0.000000000000e+00 
2.378589463552e+01 0.000000000000e+00 
2.397826972571e+01 0.000000000000e+00 
2.408633994789e+01 0.000000000000e+00 
2.427571058592e+01 0.000000000000e+00 
2.438378080810e+01 0.000000000000e+00 
2.457017703811e+01 0.000000000000e+00 
2.467824726028e+01 0.000000000000e+00 
2.486169882689e+01 0.000000000000e+00 
2.496976904906e+01 0.000000000000e+00 
2.515030539814e+01 0.000000000000e+00 
2.525837562032e+01 0.000000000000e+00 
2.543602590238e+01 0.000000000000e+00 
2.554409612456e+01 0.000000000000e+00 
2.571888920061e+01 0.000000000000e+00 
2.582695942279e+01 0.000000000000e+00 
2.599892386489e+01 0.000000000000e+00 
2.610699408707e+01 0.000000000000e+00 
2.627615818153e+01 0.000000000000e+00 
2.638422840370e+01 0.000000000000e+00 
2.655062015674e+01 0.000000000000e+00 
2.665869037892e+01 0.000000000000e+00 
2.682233751447e+01 0.000000000000e+00 
2.693040773665e+01 0.000000000000e+00 
2.709133769939e+01 0.000000000000e+00 
2.719940792156e+01 0.000000000000e+00 
2.735764788242e+01 0.000000000000e+00 
2.746571810460e+01 0.000000000000e+00 
2.762129496103e+01 0.000000000000e+00 
2.772936518320e+01 0.000000000000e+00 
2.788230556728e+01 0.000000000000e+00 
2.799037578946e+01 0.000000000000e+00 
2.814070606787e+01 0.000000000000e+00 
2.824877629004e+01 0.000000000000e+00 
2.839652256430e+01 0.000000000000e+00 
2.850459278647e+01 0.000000000000e+00 
2.864978089549e+01 0.000000000000e+00 
2.875785111767e+01 0.000000000000e+00 
2.890050664308e+01 0.000000000000e+00 
2.900857686526e+01 0.000000000000e+00 
2.914872513385e+01 0.000000000000e+00 
2.925679535602e+01 0.000000000000e+00 
2.939446143968e+01 0.000000000000e+00 
2.950253166186e+01 0.000000000000e+00 
2.963774038262e+01 0.000000000000e+00 
2.974581060479e+01 0.000000000000e+00 
2.987858653722e+01 0.000000000000e+00 
2.998665675940e+01 0.000000000000e+00 
3.011702423031e+01 0.000000000000e+00 
3.022509445249e+01 0.000000000000e+00 
3.035307754592e+01 0.000000000000e+00 
3.046114776809e+01 0.000000000000e+00 
3.058677032747e+01 0.000000000000e+00 
3.069484054964e+01 0.000000000000e+00 
3.081812618004e+01 0.000000000000e+00 
3.092619640221e+01 0.000000000000e+00 
3.104716847506e+01 0.000000000000e+00 
3.115523869724e+01 0.000000000000e+00 
3.127392034722e+01 0.000000000000e+00 
3.138199056939e+01 0.000000000000e+00 
3.149840470173e+01 0.000000000000e+00 
3.160647492391e+01 0.000000000000e+00 
3.172064421373e+01 0.000000000000e+00 
3.182871443590e+01 0.000000000000e+00 
3.194066133025e+01 0.000000000000e+00 
3.204873155242e+01 0.000000000000e+00 
3.215847827475e+01 0.000000000000e+00 
3.226654849693e+01 0.000000000000e+00 
3.237411704900e+01 0.000000000000e+00 
3.248218727118e+01 0.000000000000e+00 
3.258759943486e+01 0.000000000000e+00 
3.269566965703e+01 0.000000000000e+00 
3.279894699608e+01 0.000000000000e+00 
3.290701721826e+01 0.000000000000e+00 
3.300818108269e+01 0.000000000000e+00 
3.311625130486e+01 0.000000000000e+00 
3.321532282997e+01 0.000000000000e+00 
3.332339305214e+01 0.000000000000e+00 
3.342039316020e+01 0.000000000000e+00 
3.352846338238e+01 0.000000000000e+00 
3.362341278689e+01 0.000000000000e+00 
3.373148300907e+01 0.000000000000e+00 
3.382440221628e+01 0.000000000000e+00 
3.393247243846e+01 0.000000000000e+00 
3.402338175155e+01 0.000000000000e+00 
3.413145197373e+01 0.000000000000e+00 
3.422037149158e+01 0.000000000000e+00 
3.432844171376e+01 0.000000000000e+00 
3.441539133511e+01 0.000000000000e+00 
3.452346155728e+01 0.000000000000e+00 
3.460846098208e+01 0.000000000000e+00 
3.471653120426e+01 0.000000000000e+00 
3.479959993250e+01 0.000000000000e+00 
3.490767015468e+01 0.000000000000e+00 
3.498882749269e+01 0.000000000000e+00 
3.509689771486e+01 0.000000000000e+00 
3.517616277694e+01 0.000000000000e+00 
3.528423299911e+01 0.000000000000e+00 
3.536162470853e+01 0.000000000000e+00 
3.546969493071e+01 0.000000000000e+00 
3.554523202100e+01 0.000000000000e+00 
3.565330224318e+01 0.000000000000e+00 
3.572700325927e+01 0.000000000000e+00 
3.583507348145e+01 0.000000000000e+00 
3.590695678346e+01 0.000000000000e+00 
3.601502700564e+01 0.000000000000e+00 
3.608511077252e+01 0.000000000000e+00 
3.619318099469e+01 0.000000000000e+00 
3.626148322268e+01 0.000000000000e+00 
3.636955344486e+01 0.000000000000e+00 
3.643609194849e+01 0.000000000000e+00 
3.654416217066e+01 0.000000000000e+00 
3.660895458640e+01 0.000000000000e+00 
3.671702480858e+01 0.000000000000e+00 
3.678008859836e+01 0.000000000000e+00 
3.688815882054e+01 0.000000000000e+00 
3.694951127003e+01 0.000000000000e+00 
3.705758149221e+01 0.000000000000e+00 
3.711723971436e+01 0.000000000000e+00 
3.722530993654e+01 0.000000000000e+00 
3.728329087498e+01 0.000000000000e+00 
3.739136109715e+01 0.000000000000e+00 
3.744768152440e+01 0.000000000000e+00 
3.755575174658e+01 0.000000000000e+00 
3.761042826743e+01 0.000000000000e+00 
3.771849848960e+01 0.000000000000e+00 
3.777154754186e+01 0.000000000000e+00 
3.787961776403e+01 0.000000000000e+00 
3.793105562447e+01 0.000000000000e+00 
3.803912584665e+01 0.000000000000e+00 
3.808896862637e+01 0.000000000000e+00 
3.819703884854e+01 0.000000000000e+00 
3.824530249634e+01 0.000000000000e+00 
3.835337271852e+01 0.000000000000e+00 
3.840007302925e+01 0.000000000000e+00 
3.850814325143e+01 0.000000000000e+00 
3.855329585872e+01 0.000000000000e+00 
3.866136608090e+01 0.000000000000e+00 
3.870498646037e+01 0.000000000000e+00 
3.881305668254e+01 0.000000000000e+00 
3.885516015489e+01 0.000000000000e+00 
3.896323037707e+01 0.000000000000e+00 
3.900383211121e+01 0.000000000000e+00 
3.911190233338e+01 0.000000000000e+00 
3.915101734683e+01 0.000000000000e+00 
3.925908756900e+01 0.000000000000e+00 
3.929673073094e+01 0.000000000000e+00 
3.940480095312e+01 0.000000000000e+00 
3.944098698212e+01 0.000000000000e+00 
3.954905720429e+01 0.000000000000e+00 
3.958380066873e+01 0.000000000000e+00 
3.969187089091e+01 0.000000000000e+00 
3.972518621976e+01 0.000000000000e+00 
3.983325644193e+01 0.000000000000e+00 
3.986515791710e+01 0.000000000000e+00 
3.997322813928e+01 0.000000000000e+00 
4.000372989602e+01 0.000000000000e+00 
4.011180011820e+01 0.000000000000e+00 
4.014091615575e+01 0.000000000000e+00 
4.024898637793e+01 0.000000000000e+00 
4.027673055445e+01 0.000000000000e+00 
4.038480077663e+01 0.000000000000e+00 
4.041118680683e+01 0.000000000000e+00 
4.051925702901e+01 0.000000000000e+00 
4.054429849479e+01 0.000000000000e+00 
4.065236871697e+01 0.000000000000e+00 
4.067607906746e+01 0.000000000000e+00 
4.078414928963e+01 0.000000000000e+00 
4.080654183605e+01 0.000000000000e+00 
4.091461205823e+01 0.000000000000e+00 
4.093569997665e+01 0.000000000000e+00 
4.104377019883e+01 0.000000000000e+00 
4.106356653544e+01 0.000000000000e+00 
4.117163675762e+01 0.000000000000e+00 
4.119015442870e+01 0.000000000000e+00 
4.129822465088e+01 0.000000000000e+00 
4.131547644284e+01 0.000000000000e+00 
4.142354666502e+01 0.000000000000e+00 
4.143954523693e+01 0.000000000000e+00 
4.154761545911e+01 0.000000000000e+00 
4.156237334267e+01 0.000000000000e+00 
4.167044356485e+01 0.000000000000e+00 
4.168397316694e+01 0.000000000000e+00 
4.179204338911e+01 0.000000000000e+00 
4.180435699424e+01 0.000000000000e+00 
4.191242721641e+01 0.000000000000e+00 
4.192353698397e+01 0.000000000000e+00 
4.203160720614e+01 0.000000000000e+00 
4.204152517292e+01 0.000000000000e+00 
4.214959539509e+01 0.000000000000e+00 
4.215833348028e+01 0.000000000000e+00 
4.226640370246e+01 0.000000000000e+00 
4.227397370481e+01 0.000000000000e+00 
4.238204392698e+01 0.000000000000e+00 
4.238845752723e+01 0.000000000000e+00 
4.249652774941e+01 0.000000000000e+00 
4.250179650996e+01 0.000000000000e+00 
4.260986673214e+01 0.000000000000e+00 
4.261400210212e+01 0.000000000000e+00 
4.272207232429e+01 0.000000000000e+00 
4.272508563910e+01 0.000000000000e+00 
4.283315586127e+01 0.000000000000e+00 
4.283505833974e+01 0.000000000000e+00 
4.294312856191e+01 0.000000000000e+00 
4.294393131377e+01 0.000000000000e+00 
4.305171555882e+01 0.000000000000e+00 
4.305200153595e+01 0.000000000000e+00 
4.315842196001e+01 0.000000000000e+00 
4.315978578099e+01 0.000000000000e+00 
4.326406129748e+01 0.000000000000e+00 
4.326649218219e+01 0.000000000000e+00 
4.336864424315e+01 0.000000000000e+00 
4.337213151965e+01 0.000000000000e+00 
4.347218135781e+01 0.000000000000e+00 
4.347671446533e+01 0.000000000000e+00 
4.357468310105e+01 0.000000000000e+00 
4.358025157999e+01 0.000000000000e+00 
4.367615982809e+01 0.000000000000e+00 
4.368275332323e+01 0.000000000000e+00 
4.377662178666e+01 0.000000000000e+00 
4.378423005026e+01 0.000000000000e+00 
4.387607912700e+01 0.000000000000e+00 
4.388469200884e+01 0.000000000000e+00 
4.397454189590e+01 0.000000000000e+00 
4.398414934918e+01 0.000000000000e+00 
4.407202003625e+01 0.000000000000e+00 
4.408261211808e+01 0.000000000000e+00 
4.416852339423e+01 0.000000000000e+00 
4.418009025842e+01 0.000000000000e+00 
4.426406171871e+01 0.000000000000e+00 
4.427659361641e+01 0.000000000000e+00 
4.435864466052e+01 0.000000000000e+00 
4.437213194088e+01 0.000000000000e+00 
4.445228177188e+01 0.000000000000e+00 
4.446671488270e+01 0.000000000000e+00 
4.454498251090e+01 0.000000000000e+00 
4.456035199406e+01 0.000000000000e+00 
4.463675624348e+01 0.000000000000e+00 
4.465305273308e+01 0.000000000000e+00 
4.472761223995e+01 0.000000000000e+00 
4.474482646565e+01 0.000000000000e+00 
4.481755967699e+01 0.000000000000e+00 
4.483568246212e+01 0.000000000000e+00 
4.490660763944e+01 0.000000000000e+00 
4.492562989916e+01 0.000000000000e+00 
4.499476512221e+01 0.000000000000e+00 
4.501467786162e+01 0.000000000000e+00 
4.508204102937e+01 0.000000000000e+00 
4.510283534439e+01 0.000000000000e+00 
4.516844417604e+01 0.000000000000e+00 
4.519011125154e+01 0.000000000000e+00 
4.525398329274e+01 0.000000000000e+00 
4.527651439821e+01 0.000000000000e+00 
4.533866701927e+01 0.000000000000e+00 
4.536205351492e+01 0.000000000000e+00 
4.542250390653e+01 0.000000000000e+00 
4.544673724145e+01 0.000000000000e+00 
4.550550242346e+01 0.000000000000e+00 
4.553057412871e+01 0.000000000000e+00 
4.558767095610e+01 0.000000000000e+00 
4.561357264563e+01 0.000000000000e+00 
4.566901780403e+01 0.000000000000e+00 
4.569574117827e+01 0.000000000000e+00 
4.574955118475e+01 0.000000000000e+00 
4.577708802621e+01 0.000000000000e+00 
4.582927923260e+01 0.000000000000e+00 
4.585762140693e+01 0.000000000000e+00 
4.590820999790e+01 0.000000000000e+00 
4.593734945477e+01 0.000000000000e+00 
4.598635145381e+01 0.000000000000e+00 
4.601628022008e+01 0.000000000000e+00 
4.606371149523e+01 0.000000000000e+00 
4.609442167599e+01 0.000000000000e+00 
4.614029793782e+01 0.000000000000e+00 
4.617178171741e+01 0.000000000000e+00 
4.621611851694e+01 0.000000000000e+00 
4.624836816000e+01 0.000000000000e+00 
4.629118088926e+01 0.000000000000e+00 
4.632418873912e+01 0.000000000000e+00 
4.636549263692e+01 0.000000000000e+00 
4.639925111144e+01 0.000000000000e+00 
4.643906126902e+01 0.000000000000e+00 
4.647356285910e+01 0.000000000000e+00 
4.654713149120e+01 0.000000000000e+00 
 TITLE = "Profiles along polylines"
 VARIABLES = "DIST" "HEAD" 
 ZONE T="TIME=1.797693134862e+308"
1.143906126902e+01 3.364751434966e+01 
1.154713149120e+01 3.363953950816e+01 
1.186189421329e+01 3.364731084542e+01 
1.196996443547e+01 3.363933559089e+01 
1.228049883043e+01 3.364711094190e+01 
1.238856905261e+01 3.363913526620e+01 
1.269491740030e+01 3.364691457147e+01 
1.280298762248e+01 3.363893846688e+01 
1.310519178432e+01 3.364672166773e+01 
1.321326200650e+01 3.363874512695e+01 
1.351136342597e+01 3.364653216547e+01 
1.361943364815e+01 3.363855518160e+01 
1.391347335140e+01 3.364634600068e+01 
1.402154357357e+01 3.363836856726e+01 
1.431156217765e+01 3.364616311055e+01 
1.441963239982e+01 3.363818522151e+01 
1.470567011566e+01 3.364598343342e+01 
1.481374033784e+01 3.363800508314e+01 
1.509583697314e+01 3.364580690881e+01 
1.520390719532e+01 3.363782809205e+01 
1.548210216000e+01 3.364563347735e+01 
1.559017238218e+01 3.363765418930e+01 
1.586450469629e+01 3.364546308082e+01 
1.597257491847e+01 3.363748331705e+01 
1.624308320693e+01 3.364529566209e+01 
1.635115342911e+01 3.363731541858e+01 
1.661787593228e+01 3.364513116510e+01 
1.672594615445e+01 3.363715043823e+01 
1.698892073042e+01 3.364496953489e+01 
1.709699095260e+01 3.363698832140e+01 
1.735625507980e+01 3.364481071752e+01 
1.746432530197e+01 3.363682901455e+01 
1.771991608656e+01 3.364465466010e+01 
1.782798630873e+01 3.363667246513e+01 
1.807994048174e+01 3.364450131076e+01 
1.818801070391e+01 3.363651862164e+01 
1.843636463385e+01 3.364435061861e+01 
1.854443485602e+01 3.363636743354e+01 
1.878922454571e+01 3.364420253376e+01 
1.889729476788e+01 3.363621885127e+01 
1.913855585918e+01 3.364405700727e+01 
1.924662608136e+01 3.363607282623e+01 
1.948439385967e+01 3.364391399117e+01 
1.959246408185e+01 3.363592931074e+01 
1.982677347811e+01 3.364377343839e+01 
1.993484370028e+01 3.363578825807e+01 
2.016572930055e+01 3.364363530281e+01 
2.027379952273e+01 3.363564962238e+01 
2.050129556469e+01 3.364349953917e+01 
2.060936578686e+01 3.363551335870e+01 
2.083350616679e+01 3.364336610313e+01 
2.094157638897e+01 3.363537942296e+01 
2.116239466328e+01 3.364323495119e+01 
2.127046488545e+01 3.363524777194e+01 
2.148799427493e+01 3.364310604071e+01 
2.159606449711e+01 3.363511836323e+01 
2.181033789092e+01 3.364297932987e+01 
2.191840811309e+01 3.363499115529e+01 
2.212945807027e+01 3.364285477770e+01 
2.223752829244e+01 3.363486610736e+01 
2.244538704838e+01 3.364273234400e+01 
2.255345727056e+01 3.363474317946e+01 
2.275815673573e+01 3.364261198937e+01 
2.286622695791e+01 3.363462233243e+01 
2.306779872692e+01 3.364249367520e+01 
2.317586894910e+01 3.363450352783e+01 
2.337434429914e+01 3.364237736361e+01 
2.348241452132e+01 3.363438672800e+01 
2.367782441334e+01 3.364226301747e+01 
2.378589463552e+01 3.363427189599e+01 
2.397826972571e+01 3.364215060040e+01 
2.408633994789e+01 3.363415899559e+01 
2.427571058592e+01 3.364204007671e+01 
2.438378080810e+01 3.363404799129e+01 
2.457017703811e+01 3.364193141143e+01 
2.467824726028e+01 3.363393884825e+01 
2.486169882689e+01 3.364182457025e+01 
2.496976904906e+01 3.363383153234e+01 
2.515030539814e+01 3.364171951957e+01 
2.525837562032e+01 3.363372601009e+01 
2.543602590238e+01 3.364161622642e+01 
2.554409612456e+01 3.363362224866e+01 
2.571888920061e+01 3.364151465850e+01 
2.582695942279e+01 3.363352021587e+01 
2.599892386489e+01 3.364141478412e+01 
2.610699408707e+01 3.363341988016e+01 
2.627615818153e+01 3.364131657223e+01 
2.638422840370e+01 3.363332121058e+01 
2.655062015674e+01 3.364121999239e+01 
2.665869037892e+01 3.363322417680e+01 
2.682233751447e+01 3.364112501475e+01 
2.693040773665e+01 3.363312874905e+01 
2.709133769939e+01 3.364103161004e+01 
2.719940792156e+01 3.363303489816e+01 
2.735764788242e+01 3.364093974957e+01 
2.746571810460e+01 3.363294259552e+01 
2.762129496103e+01 3.364084940522e+01 
2.772936518320e+01 3.363285181309e+01 
2.788230556728e+01 3.364076054941e+01 
2.799037578946e+01 3.363276252334e+01 
2.814070606787e+01 3.364067315510e+01 
2.824877629004e+01 3.363267469931e+01 
2.839652256430e+01 3.364058719577e+01 
2.850459278647e+01 3.363258831454e+01 
2.864978089549e+01 3.364050264544e+01 
2.875785111767e+01 3.363250334310e+01 
2.890050664308e+01 3.364041947862e+01 
2.900857686526e+01 3.363241975953e+01 
2.914872513385e+01 3.364033767032e+01 
2.925679535602e+01 3.363233753891e+01 
2.939446143968e+01 3.364025719603e+01 
2.950253166186e+01 3.363225665675e+01 
2.963774038262e+01 3.364017803174e+01 
2.974581060479e+01 3.363217708906e+01 
2.987858653722e+01 3.364010015389e+01 
2.998665675940e+01 3.363209881233e+01 
3.011702423031e+01 3.364002353937e+01 
3.022509445249e+01 3.363202180346e+01 
3.035307754592e+01 3.363994816553e+01 
3.046114776809e+01 3.363194603982e+01 
3.058677032747e+01 3.363987401016e+01 
3.069484054964e+01 3.363187149923e+01 
3.081812618004e+01 3.363980105147e+01 
3.092619640221e+01 3.363179815990e+01 
3.104716847506e+01 3.363972926811e+01 
3.115523869724e+01 3.363172600048e+01 
3.127392034722e+01 3.363965863913e+01 
3.138199056939e+01 3.363165500003e+01 
3.149840470173e+01 3.363958914397e+01 
3.160647492391e+01 3.363158513800e+01 
3.172064421373e+01 3.363952076250e+01 
3.182871443590e+01 3.363151639425e+01 
3.194066133025e+01 3.363945347495e+01 
3.204873155242e+01 3.363144874900e+01 
3.215847827475e+01 3.363938726194e+01 
3.226654849693e+01 3.363138218288e+01 
3.237411704900e+01 3.363932210446e+01 
3.248218727118e+01 3.363131667685e+01 
3.258759943486e+01 3.363925798388e+01 
3.269566965703e+01 3.363125221228e+01 
3.279894699608e+01 3.363919488190e+01 
3.290701721826e+01 3.363118877084e+01 
3.300818108269e+01 3.363913278059e+01 
3.311625130486e+01 3.363112633460e+01 
3.321532282997e+01 3.363907166236e+01 
3.332339305214e+01 3.363106488594e+01 
3.342039316020e+01 3.363901150994e+01 
3.352846338238e+01 3.363100440758e+01 
3.362341278689e+01 3.363895230642e+01 
3.373148300907e+01 3.363094488256e+01 
3.382440221628e+01 3.363889403519e+01 
3.393247243846e+01 3.363088629426e+01 
3.402338175155e+01 3.363883667996e+01 
3.413145197373e+01 3.363082862637e+01 
3.422037149158e+01 3.363878022475e+01 
3.432844171376e+01 3.363077186286e+01 
3.441539133511e+01 3.363872465387e+01 
3.452346155728e+01 3.363071598804e+01 
3.460846098208e+01 3.363866995197e+01 
3.471653120426e+01 3.363066098650e+01 
3.479959993250e+01 3.363861610393e+01 
3.490767015468e+01 3.363060684310e+01 
3.498882749269e+01 3.363856309497e+01 
3.509689771486e+01 3.363055354302e+01 
3.517616277694e+01 3.363851091056e+01 
3.528423299911e+01 3.363050107170e+01 
3.536162470853e+01 3.363845953644e+01 
3.546969493071e+01 3.363044941484e+01 
3.554523202100e+01 3.363840895865e+01 
3.565330224318e+01 3.363039855843e+01 
3.572700325927e+01 3.363835916345e+01 
3.583507348145e+01 3.363034848872e+01 
3.590695678346e+01 3.363831013738e+01 
3.601502700564e+01 3.363029919219e+01 
3.608511077252e+01 3.363826186725e+01 
3.619318099469e+01 3.363025065561e+01 
3.626148322268e+01 3.363821434008e+01 
3.636955344486e+01 3.363020286596e+01 
3.643609194849e+01 3.363816754315e+01 
3.654416217066e+01 3.363015581049e+01 
3.660895458640e+01 3.363812146399e+01 
3.671702480858e+01 3.363010947667e+01 
3.678008859836e+01 3.363807609035e+01 
3.688815882054e+01 3.363006385221e+01 
3.694951127003e+01 3.363803141020e+01 
3.705758149221e+01 3.363001892505e+01 
3.711723971436e+01 3.363798741174e+01 
3.722530993654e+01 3.362997468335e+01 
3.728329087498e+01 3.363794408341e+01 
3.739136109715e+01 3.362993111548e+01 
3.744768152440e+01 3.363790141382e+01 
3.755575174658e+01 3.362988821003e+01 
3.761042826743e+01 3.363785939184e+01 
3.771849848960e+01 3.362984595581e+01 
3.777154754186e+01 3.363781800651e+01 
3.787961776403e+01 3.362980434182e+01 
3.793105562447e+01 3.363777724709e+01 
3.803912584665e+01 3.362976335728e+01 
3.808896862637e+01 3.363773710303e+01 
3.819703884854e+01 3.362972299159e+01 
3.824530249634e+01 3.363769756397e+01 
3.835337271852e+01 3.362968323436e+01 
3.840007302925e+01 3.363765861976e+01 
3.850814325143e+01 3.362964407537e+01 
3.855329585872e+01 3.363762026041e+01 
3.866136608090e+01 3.362960550461e+01 
3.870498646037e+01 3.363758247614e+01 
3.881305668254e+01 3.362956751223e+01 
3.885516015489e+01 3.363754525733e+01 
3.896323037707e+01 3.362953008858e+01 
3.900383211121e+01 3.363750859455e+01 
3.911190233338e+01 3.362949322418e+01 
3.915101734683e+01 3.363747247851e+01 
3.925908756900e+01 3.362945690971e+01 
3.929673073094e+01 3.363743690014e+01 
3.940480095312e+01 3.362942113603e+01 
3.944098698212e+01 3.363740185050e+01 
3.954905720429e+01 3.362938589418e+01 
3.958380066873e+01 3.363736732081e+01 
3.969187089091e+01 3.362935117532e+01 
3.972518621976e+01 3.363733330247e+01 
3.983325644193e+01 3.362931697082e+01 
3.986515791710e+01 3.363729978703e+01 
3.997322813928e+01 3.362928327216e+01 
4.000372989602e+01 3.363726676617e+01 
4.011180011820e+01 3.362925007101e+01 
4.014091615575e+01 3.363723423176e+01 
4.024898637793e+01 3.362921735918e+01 
4.027673055445e+01 3.363720217579e+01 
4.038480077663e+01 3.362918512861e+01 
4.041118680683e+01 3.363717059039e+01 
4.051925702901e+01 3.362915337141e+01 
4.054429849479e+01 3.363713946786e+01 
4.065236871697e+01 3.362912207982e+01 
4.067607906746e+01 3.363710880061e+01 
4.078414928963e+01 3.362909124620e+01 
4.080654183605e+01 3.363707858119e+01 
4.091461205823e+01 3.362906086309e+01 
4.093569997665e+01 3.363704880230e+01 
4.104377019883e+01 3.362903092312e+01 
4.106356653544e+01 3.363701945676e+01 
4.117163675762e+01 3.362900141908e+01 
4.119015442870e+01 3.363699053751e+01 
4.129822465088e+01 3.362897234388e+01 
4.131547644284e+01 3.363696203764e+01 
4.142354666502e+01 3.362894369054e+01 
4.143954523693e+01 3.363693395033e+01 
4.154761545911e+01 3.362891545224e+01 
4.156237334267e+01 3.363690626892e+01 
4.167044356485e+01 3.362888762225e+01 
4.168397316694e+01 3.363687898683e+01 
4.179204338911e+01 3.362886019397e+01 
4.180435699424e+01 3.363685209763e+01 
4.191242721641e+01 3.362883316091e+01 
4.192353698397e+01 3.363682559497e+01 
4.203160720614e+01 3.362880651671e+01 
4.204152517292e+01 3.363679947265e+01 
4.214959539509e+01 3.362878025512e+01 
4.215833348028e+01 3.363677372454e+01 
4.226640370246e+01 3.362875436998e+01 
4.227397370481e+01 3.363674834466e+01 
4.238204392698e+01 3.362872885525e+01 
4.238845752723e+01 3.363672332710e+01 
4.249652774941e+01 3.362870370501e+01 
4.250179650996e+01 3.363669866608e+01 
4.260986673214e+01 3.362867891343e+01 
4.261400210212e+01 3.363667435589e+01 
4.272207232429e+01 3.362865447479e+01 
4.272508563910e+01 3.363665039096e+01 
4.283315586127e+01 3.362863038345e+01 
4.283505833974e+01 3.363662676579e+01 
4.294312856191e+01 3.362860663389e+01 
4.294393131377e+01 3.363660347498e+01 
4.305171555882e+01 3.363658051323e+01 
4.305200153595e+01 3.362858322069e+01 
4.315842196001e+01 3.363655787533e+01 
4.315978578099e+01 3.362856013850e+01 
4.326406129748e+01 3.363653555617e+01 
4.326649218219e+01 3.362853738209e+01 
4.336864424315e+01 3.363651355071e+01 
4.337213151965e+01 3.362851494630e+01 
4.347218135781e+01 3.363649185401e+01 
4.347671446533e+01 3.362849282607e+01 
4.357468310105e+01 3.363647046121e+01 
4.358025157999e+01 3.362847101644e+01 
4.367615982809e+01 3.363644936755e+01 
4.368275332323e+01 3.362844951250e+01 
4.377662178666e+01 3.363642856833e+01 
4.378423005026e+01 3.362842830947e+01 
4.387607912700e+01 3.363640805894e+01 
4.388469200884e+01 3.362840740262e+01 
4.397454189590e+01 3.363638783486e+01 
4.398414934918e+01 3.362838678731e+01 
4.407202003625e+01 3.363636789163e+01 
4.408261211808e+01 3.362836645898e+01 
4.416852339423e+01 3.363634822488e+01 
4.418009025842e+01 3.362834641316e+01 
4.426406171871e+01 3.363632883031e+01 
4.427659361641e+01 3.362832664544e+01 
4.435864466052e+01 3.363630970369e+01 
4.437213194088e+01 3.362830715149e+01 
4.445228177188e+01 3.363629084088e+01 
4.446671488270e+01 3.362828792707e+01 
4.454498251090e+01 3.363627223779e+01 
4.456035199406e+01 3.362826896799e+01 
4.463675624348e+01 3.363625389040e+01 
4.465305273308e+01 3.362825027015e+01 
4.472761223995e+01 3.363623579478e+01 
4.474482646565e+01 3.362823182950e+01 
4.481755967699e+01 3.363621794704e+01 
4.483568246212e+01 3.362821364208e+01 
4.490660763944e+01 3.363620034339e+01 
4.492562989916e+01 3.362819570399e+01 
4.499476512221e+01 3.363618298006e+01 
4.501467786162e+01 3.362817801139e+01 
4.508204102937e+01 3.363616585338e+01 
4.510283534439e+01 3.362816056051e+01 
4.516844417604e+01 3.363614895973e+01 
4.519011125154e+01 3.362814334764e+01 
4.525398329274e+01 3.363613229555e+01 
4.527651439821e+01 3.362812636915e+01 
4.533866701927e+01 3.363611585734e+01 
4.536205351492e+01 3.362810962144e+01 
4.542250390653e+01 3.363609964167e+01 
4.544673724145e+01 3.362809310101e+01 
4.550550242346e+01 3.363608364514e+01 
4.553057412871e+01 3.362807680439e+01 
4.558767095610e+01 3.363606786445e+01 
4.561357264563e+01 3.362806072817e+01 
4.566901780403e+01 3.363605229631e+01 
4.569574117827e+01 3.362804486900e+01 
4.574955118475e+01 3.363603693751e+01 
4.577708802621e+01 3.362802922361e+01 
4.582927923260e+01 3.363602178490e+01 
4.585762140693e+01 3.362801378875e+01 
4.590820999790e+01 3.363600683537e+01 
4.593734945477e+01 3.362799856125e+01 
4.598635145381e+01 3.363599208586e+01 
4.601628022008e+01 3.362798353797e+01 
4.606371149523e+01 3.363597753337e+01 
4.609442167599e+01 3.362796871585e+01 
4.614029793782e+01 3.363596317495e+01 
4.617178171741e+01 3.362795409185e+01 
4.621611851694e+01 3.363594900768e+01 
4.624836816000e+01 3.362793966302e+01 
4.629118088926e+01 3.363593502872e+01 
4.632418873912e+01 3.362792542641e+01 
4.636549263692e+01 3.363592123525e+01 
4.639925111144e+01 3.362791137916e+01 
4.643906126902e+01 3.363590762453e+01 
4.647356285910e+01 3.362789751844e+01 
4.654713149120e+01 3.362788384149e+01 
