 TITLE = "Profiles along polylines"
 VARIABLES = "DIST" "HEAD" 
 ZONE T="TIME=0.000000000000e+00"
4.649681852861e+01 0.000000000000e+00 
4.691965147288e+01 0.000000000000e+00 
4.733825609002e+01 0.000000000000e+00 
4.738774591310e+01 0.000000000000e+00 
4.775267465989e+01 0.000000000000e+00 
4.781057885737e+01 0.000000000000e+00 
4.816294904391e+01 0.000000000000e+00 
4.822918347451e+01 0.000000000000e+00 
4.856912068556e+01 0.000000000000e+00 
4.864360204438e+01 0.000000000000e+00 
4.897123061099e+01 0.000000000000e+00 
4.905387642840e+01 0.000000000000e+00 
4.936931943724e+01 0.000000000000e+00 
4.946004807006e+01 0.000000000000e+00 
4.976342737525e+01 0.000000000000e+00 
4.986215799548e+01 0.000000000000e+00 
5.015359423273e+01 0.000000000000e+00 
5.026024682173e+01 0.000000000000e+00 
5.053985941959e+01 0.000000000000e+00 
5.065435475974e+01 0.000000000000e+00 
5.092226195589e+01 0.000000000000e+00 
5.104452161723e+01 0.000000000000e+00 
5.130084046653e+01 0.000000000000e+00 
5.143078680409e+01 0.000000000000e+00 
5.167563319187e+01 0.000000000000e+00 
5.181318934038e+01 0.000000000000e+00 
5.204667799002e+01 0.000000000000e+00 
5.219176785102e+01 0.000000000000e+00 
5.241401233939e+01 0.000000000000e+00 
5.256656057636e+01 0.000000000000e+00 
5.277767334615e+01 0.000000000000e+00 
5.293760537451e+01 0.000000000000e+00 
5.313769774133e+01 0.000000000000e+00 
5.330493972388e+01 0.000000000000e+00 
5.349412189344e+01 0.000000000000e+00 
5.366860073065e+01 0.000000000000e+00 
5.384698180530e+01 0.000000000000e+00 
5.402862512582e+01 0.000000000000e+00 
5.419631311878e+01 0.000000000000e+00 
5.438504927794e+01 0.000000000000e+00 
5.454215111927e+01 0.000000000000e+00 
5.473790918980e+01 0.000000000000e+00 
5.488453073770e+01 0.000000000000e+00 
5.508724050327e+01 0.000000000000e+00 
5.522348656015e+01 0.000000000000e+00 
5.543307850376e+01 0.000000000000e+00 
5.555905282428e+01 0.000000000000e+00 
5.577545812220e+01 0.000000000000e+00 
5.589126342639e+01 0.000000000000e+00 
5.611441394465e+01 0.000000000000e+00 
5.622015192288e+01 0.000000000000e+00 
5.644998020878e+01 0.000000000000e+00 
5.654575153453e+01 0.000000000000e+00 
5.678219081089e+01 0.000000000000e+00 
5.686809515052e+01 0.000000000000e+00 
5.711107930737e+01 0.000000000000e+00 
5.718721532987e+01 0.000000000000e+00 
5.743667891903e+01 0.000000000000e+00 
5.750314430799e+01 0.000000000000e+00 
5.775902253501e+01 0.000000000000e+00 
5.781591399534e+01 0.000000000000e+00 
5.807814271436e+01 0.000000000000e+00 
5.812555598653e+01 0.000000000000e+00 
5.839407169248e+01 0.000000000000e+00 
5.843210155875e+01 0.000000000000e+00 
5.870684137983e+01 0.000000000000e+00 
5.873558167295e+01 0.000000000000e+00 
5.901648337102e+01 0.000000000000e+00 
5.903602698531e+01 0.000000000000e+00 
5.932302894324e+01 0.000000000000e+00 
5.933346784553e+01 0.000000000000e+00 
5.962650905744e+01 0.000000000000e+00 
5.962793429771e+01 0.000000000000e+00 
5.991945608649e+01 0.000000000000e+00 
5.992695436981e+01 0.000000000000e+00 
6.020806265775e+01 0.000000000000e+00 
6.022439523002e+01 0.000000000000e+00 
6.049378316199e+01 0.000000000000e+00 
6.051886168221e+01 0.000000000000e+00 
6.077664646022e+01 0.000000000000e+00 
6.081038347099e+01 0.000000000000e+00 
6.105668112450e+01 0.000000000000e+00 
6.109899004224e+01 0.000000000000e+00 
6.133391544113e+01 0.000000000000e+00 
6.138471054649e+01 0.000000000000e+00 
6.160837741635e+01 0.000000000000e+00 
6.166757384472e+01 0.000000000000e+00 
6.188009477408e+01 0.000000000000e+00 
6.194760850899e+01 0.000000000000e+00 
6.214909495900e+01 0.000000000000e+00 
6.222484282563e+01 0.000000000000e+00 
6.241540514203e+01 0.000000000000e+00 
6.249930480085e+01 0.000000000000e+00 
6.267905222064e+01 0.000000000000e+00 
6.277102215858e+01 0.000000000000e+00 
6.294006282689e+01 0.000000000000e+00 
6.304002234349e+01 0.000000000000e+00 
6.319846332748e+01 0.000000000000e+00 
6.330633252652e+01 0.000000000000e+00 
6.345427982391e+01 0.000000000000e+00 
6.356997960513e+01 0.000000000000e+00 
6.370753815510e+01 0.000000000000e+00 
6.383099021138e+01 0.000000000000e+00 
6.395826390269e+01 0.000000000000e+00 
6.408939071197e+01 0.000000000000e+00 
6.420648239346e+01 0.000000000000e+00 
6.434520720840e+01 0.000000000000e+00 
6.445221869929e+01 0.000000000000e+00 
6.459846553960e+01 0.000000000000e+00 
6.469549764223e+01 0.000000000000e+00 
6.484919128719e+01 0.000000000000e+00 
6.493634379683e+01 0.000000000000e+00 
6.509740977795e+01 0.000000000000e+00 
6.517478148992e+01 0.000000000000e+00 
6.534314608379e+01 0.000000000000e+00 
6.541083480553e+01 0.000000000000e+00 
6.558642502672e+01 0.000000000000e+00 
6.564452758707e+01 0.000000000000e+00 
6.582727118133e+01 0.000000000000e+00 
6.587588343964e+01 0.000000000000e+00 
6.606570887441e+01 0.000000000000e+00 
6.610492573467e+01 0.000000000000e+00 
6.630176219002e+01 0.000000000000e+00 
6.633167760682e+01 0.000000000000e+00 
6.653545497157e+01 0.000000000000e+00 
6.655616196134e+01 0.000000000000e+00 
6.676681082414e+01 0.000000000000e+00 
6.677840147333e+01 0.000000000000e+00 
6.699585311916e+01 0.000000000000e+00 
6.699841858985e+01 0.000000000000e+00 
6.721623553436e+01 0.000000000000e+00 
6.722260499132e+01 0.000000000000e+00 
6.743187430861e+01 0.000000000000e+00 
6.744708934583e+01 0.000000000000e+00 
6.764535669446e+01 0.000000000000e+00 
6.766932885783e+01 0.000000000000e+00 
6.785670425569e+01 0.000000000000e+00 
6.788934597435e+01 0.000000000000e+00 
6.806593834229e+01 0.000000000000e+00 
6.810716291885e+01 0.000000000000e+00 
6.827308008957e+01 0.000000000000e+00 
6.832280169310e+01 0.000000000000e+00 
6.847815041981e+01 0.000000000000e+00 
6.853628407896e+01 0.000000000000e+00 
6.868117004650e+01 0.000000000000e+00 
6.874763164018e+01 0.000000000000e+00 
6.888215947589e+01 0.000000000000e+00 
6.895686572678e+01 0.000000000000e+00 
6.908113901115e+01 0.000000000000e+00 
6.916400747406e+01 0.000000000000e+00 
6.927812875118e+01 0.000000000000e+00 
6.936907780430e+01 0.000000000000e+00 
6.947314859471e+01 0.000000000000e+00 
6.957209743099e+01 0.000000000000e+00 
6.966621824168e+01 0.000000000000e+00 
6.977308686038e+01 0.000000000000e+00 
6.985735719210e+01 0.000000000000e+00 
6.997206639564e+01 0.000000000000e+00 
7.004658475229e+01 0.000000000000e+00 
7.016905613567e+01 0.000000000000e+00 
7.023392003654e+01 0.000000000000e+00 
7.036407597920e+01 0.000000000000e+00 
7.041938196813e+01 0.000000000000e+00 
7.055714562618e+01 0.000000000000e+00 
7.060298928060e+01 0.000000000000e+00 
7.074828457660e+01 0.000000000000e+00 
7.078476051887e+01 0.000000000000e+00 
7.093751213678e+01 0.000000000000e+00 
7.096471404306e+01 0.000000000000e+00 
7.112484742103e+01 0.000000000000e+00 
7.114286803212e+01 0.000000000000e+00 
7.131030935263e+01 0.000000000000e+00 
7.131924048228e+01 0.000000000000e+00 
7.149384920809e+01 0.000000000000e+00 
7.149391666510e+01 0.000000000000e+00 
7.166671184600e+01 0.000000000000e+00 
7.167568790337e+01 0.000000000000e+00 
7.183784585796e+01 0.000000000000e+00 
7.185564142755e+01 0.000000000000e+00 
7.200726852963e+01 0.000000000000e+00 
7.203379541661e+01 0.000000000000e+00 
7.217499697396e+01 0.000000000000e+00 
7.221016786677e+01 0.000000000000e+00 
7.234104813457e+01 0.000000000000e+00 
7.238477659258e+01 0.000000000000e+00 
7.250543878400e+01 0.000000000000e+00 
7.255763923049e+01 0.000000000000e+00 
7.266818552702e+01 0.000000000000e+00 
7.272877324245e+01 0.000000000000e+00 
7.282930480145e+01 0.000000000000e+00 
7.289819591412e+01 0.000000000000e+00 
7.298881288407e+01 0.000000000000e+00 
7.306592435845e+01 0.000000000000e+00 
7.314672588596e+01 0.000000000000e+00 
7.323197551907e+01 0.000000000000e+00 
7.330305975594e+01 0.000000000000e+00 
7.339636616849e+01 0.000000000000e+00 
7.345783028884e+01 0.000000000000e+00 
7.355911291152e+01 0.000000000000e+00 
7.361105311832e+01 0.000000000000e+00 
7.372023218595e+01 0.000000000000e+00 
7.376274371996e+01 0.000000000000e+00 
7.387974026856e+01 0.000000000000e+00 
7.391291741449e+01 0.000000000000e+00 
7.403765327046e+01 0.000000000000e+00 
7.406158937080e+01 0.000000000000e+00 
7.419398714043e+01 0.000000000000e+00 
7.420877460642e+01 0.000000000000e+00 
7.434875767334e+01 0.000000000000e+00 
7.435448799054e+01 0.000000000000e+00 
7.449874424171e+01 0.000000000000e+00 
7.450198050281e+01 0.000000000000e+00 
7.464155792832e+01 0.000000000000e+00 
7.465367110445e+01 0.000000000000e+00 
7.478294347935e+01 0.000000000000e+00 
7.480384479898e+01 0.000000000000e+00 
7.492291517670e+01 0.000000000000e+00 
7.495251675529e+01 0.000000000000e+00 
7.506148715561e+01 0.000000000000e+00 
7.509970199091e+01 0.000000000000e+00 
7.519867341534e+01 0.000000000000e+00 
7.524541537503e+01 0.000000000000e+00 
7.533448781405e+01 0.000000000000e+00 
7.538967162620e+01 0.000000000000e+00 
7.546894406643e+01 0.000000000000e+00 
7.553248531282e+01 0.000000000000e+00 
7.560205575439e+01 0.000000000000e+00 
7.567387086384e+01 0.000000000000e+00 
7.573383632705e+01 0.000000000000e+00 
7.581384256119e+01 0.000000000000e+00 
7.586429909564e+01 0.000000000000e+00 
7.595241454011e+01 0.000000000000e+00 
7.599345723624e+01 0.000000000000e+00 
7.608960079984e+01 0.000000000000e+00 
7.612132379503e+01 0.000000000000e+00 
7.622541519854e+01 0.000000000000e+00 
7.624791168829e+01 0.000000000000e+00 
7.635987145092e+01 0.000000000000e+00 
7.637323370243e+01 0.000000000000e+00 
7.649298313888e+01 0.000000000000e+00 
7.649730249652e+01 0.000000000000e+00 
7.662013060226e+01 0.000000000000e+00 
7.662476371154e+01 0.000000000000e+00 
7.674173042653e+01 0.000000000000e+00 
7.675522648014e+01 0.000000000000e+00 
7.686211425382e+01 0.000000000000e+00 
7.688438462073e+01 0.000000000000e+00 
7.698129424356e+01 0.000000000000e+00 
7.701225117952e+01 0.000000000000e+00 
7.709928243251e+01 0.000000000000e+00 
7.713883907279e+01 0.000000000000e+00 
7.721609073987e+01 0.000000000000e+00 
7.726416108693e+01 0.000000000000e+00 
7.733173096440e+01 0.000000000000e+00 
7.738822988101e+01 0.000000000000e+00 
7.744621478682e+01 0.000000000000e+00 
7.751105798676e+01 0.000000000000e+00 
7.755955376955e+01 0.000000000000e+00 
7.763265781102e+01 0.000000000000e+00 
7.767175936170e+01 0.000000000000e+00 
7.775304163832e+01 0.000000000000e+00 
7.778284289869e+01 0.000000000000e+00 
7.787222162805e+01 0.000000000000e+00 
7.789281559933e+01 0.000000000000e+00 
7.799020981700e+01 0.000000000000e+00 
7.800168857336e+01 0.000000000000e+00 
7.810701812436e+01 0.000000000000e+00 
7.810947281840e+01 0.000000000000e+00 
7.821617921960e+01 0.000000000000e+00 
7.822265834889e+01 0.000000000000e+00 
7.832181855707e+01 0.000000000000e+00 
7.833714217131e+01 0.000000000000e+00 
7.842640150274e+01 0.000000000000e+00 
7.845048115404e+01 0.000000000000e+00 
7.852993861740e+01 0.000000000000e+00 
7.856268674620e+01 0.000000000000e+00 
7.863244036064e+01 0.000000000000e+00 
7.867377028318e+01 0.000000000000e+00 
7.873391708767e+01 0.000000000000e+00 
7.878374298382e+01 0.000000000000e+00 
7.883437904625e+01 0.000000000000e+00 
7.889261595785e+01 0.000000000000e+00 
7.893383638659e+01 0.000000000000e+00 
7.900040020290e+01 0.000000000000e+00 
7.903229915549e+01 0.000000000000e+00 
7.910710660410e+01 0.000000000000e+00 
7.912977729583e+01 0.000000000000e+00 
7.921274594156e+01 0.000000000000e+00 
7.922628065382e+01 0.000000000000e+00 
7.931732888724e+01 0.000000000000e+00 
7.932181897829e+01 0.000000000000e+00 
7.941640192011e+01 0.000000000000e+00 
7.942086600189e+01 0.000000000000e+00 
7.951003903147e+01 0.000000000000e+00 
7.952336774514e+01 0.000000000000e+00 
7.960273977049e+01 0.000000000000e+00 
7.962484447217e+01 0.000000000000e+00 
7.969451350306e+01 0.000000000000e+00 
7.972530643074e+01 0.000000000000e+00 
7.978536949953e+01 0.000000000000e+00 
7.982476377109e+01 0.000000000000e+00 
7.987531693657e+01 0.000000000000e+00 
7.992322653998e+01 0.000000000000e+00 
7.996436489903e+01 0.000000000000e+00 
8.002070468033e+01 0.000000000000e+00 
8.005252238180e+01 0.000000000000e+00 
8.011720803831e+01 0.000000000000e+00 
8.013979828895e+01 0.000000000000e+00 
8.021274636279e+01 0.000000000000e+00 
8.022620143562e+01 0.000000000000e+00 
8.030732930460e+01 0.000000000000e+00 
8.031174055233e+01 0.000000000000e+00 
8.039642427886e+01 0.000000000000e+00 
8.040096641596e+01 0.000000000000e+00 
8.048026116611e+01 0.000000000000e+00 
8.049366715498e+01 0.000000000000e+00 
8.056325968304e+01 0.000000000000e+00 
8.058544088756e+01 0.000000000000e+00 
8.064542821568e+01 0.000000000000e+00 
8.067629688403e+01 0.000000000000e+00 
8.072677506362e+01 0.000000000000e+00 
8.076624432106e+01 0.000000000000e+00 
8.080730844433e+01 0.000000000000e+00 
8.085529228352e+01 0.000000000000e+00 
8.088703649218e+01 0.000000000000e+00 
8.094344976629e+01 0.000000000000e+00 
8.096596725749e+01 0.000000000000e+00 
8.103072567345e+01 0.000000000000e+00 
8.104410871340e+01 0.000000000000e+00 
8.111712882012e+01 0.000000000000e+00 
8.112146875482e+01 0.000000000000e+00 
8.119805519741e+01 0.000000000000e+00 
8.120266793682e+01 0.000000000000e+00 
8.127387577652e+01 0.000000000000e+00 
8.128735166335e+01 0.000000000000e+00 
8.134893814884e+01 0.000000000000e+00 
8.137118855061e+01 0.000000000000e+00 
8.142324989650e+01 0.000000000000e+00 
8.145418706754e+01 0.000000000000e+00 
8.149681852861e+01 0.000000000000e+00 
8.153635560018e+01 0.000000000000e+00 
8.161770244811e+01 0.000000000000e+00 
8.169823582883e+01 0.000000000000e+00 
8.177796387668e+01 0.000000000000e+00 
8.185689464198e+01 0.000000000000e+00 
8.193503609789e+01 0.000000000000e+00 
8.201239613931e+01 0.000000000000e+00 
8.208898258190e+01 0.000000000000e+00 
8.216480316102e+01 0.000000000000e+00 
8.223986553334e+01 0.000000000000e+00 
8.231417728100e+01 0.000000000000e+00 
8.238774591310e+01 0.000000000000e+00 
 TITLE = "Profiles along polylines"
 VARIABLES = "DIST" "HEAD" 
 ZONE T="TIME=1.797693134862e+308"
4.649681852861e+01 3.209089233404e+01 
4.691965147288e+01 3.208996950473e+01 
4.733825609002e+01 3.208905762014e+01 
4.738774591310e+01 3.207036568859e+01 
4.775267465989e+01 3.208815652283e+01 
4.781057885737e+01 3.206943849987e+01 
4.816294904391e+01 3.208726605805e+01 
4.822918347451e+01 3.206852220676e+01 
4.856912068556e+01 3.208638607376e+01 
4.864360204438e+01 3.206761665766e+01 
4.897123061099e+01 3.208551642060e+01 
4.905387642840e+01 3.206672170344e+01 
4.936931943724e+01 3.208465695182e+01 
4.946004807006e+01 3.206583719746e+01 
4.976342737525e+01 3.208380752330e+01 
4.986215799548e+01 3.206496299554e+01 
5.015359423273e+01 3.208296799348e+01 
5.026024682173e+01 3.206409895590e+01 
5.053985941959e+01 3.208213822329e+01 
5.065435475974e+01 3.206324493915e+01 
5.092226195589e+01 3.208131807620e+01 
5.104452161723e+01 3.206240080825e+01 
5.130084046653e+01 3.208050741808e+01 
5.143078680409e+01 3.206156642849e+01 
5.167563319187e+01 3.207970611723e+01 
5.181318934038e+01 3.206074166742e+01 
5.204667799002e+01 3.207891404432e+01 
5.219176785102e+01 3.205992639484e+01 
5.241401233939e+01 3.207813107232e+01 
5.256656057636e+01 3.205912048279e+01 
5.277767334615e+01 3.207735707649e+01 
5.293760537451e+01 3.205832380544e+01 
5.313769774133e+01 3.207659193434e+01 
5.330493972388e+01 3.205753623912e+01 
5.349412189344e+01 3.207583552554e+01 
5.366860073065e+01 3.205675766224e+01 
5.384698180530e+01 3.207508773193e+01 
5.402862512582e+01 3.205598795529e+01 
5.419631311878e+01 3.207434843747e+01 
5.438504927794e+01 3.205522700076e+01 
5.454215111927e+01 3.207361752815e+01 
5.473790918980e+01 3.205447468313e+01 
5.488453073770e+01 3.207289489202e+01 
5.508724050327e+01 3.205373088884e+01 
5.522348656015e+01 3.207218041908e+01 
5.543307850376e+01 3.205299550621e+01 
5.555905282428e+01 3.207147400128e+01 
5.577545812220e+01 3.205226842546e+01 
5.589126342639e+01 3.207077553246e+01 
5.611441394465e+01 3.205154953863e+01 
5.622015192288e+01 3.207008490832e+01 
5.644998020878e+01 3.205083873955e+01 
5.654575153453e+01 3.206940202639e+01 
5.678219081089e+01 3.205013592382e+01 
5.686809515052e+01 3.206872678594e+01 
5.711107930737e+01 3.204944098876e+01 
5.718721532987e+01 3.206805908801e+01 
5.743667891903e+01 3.204875383339e+01 
5.750314430799e+01 3.206739883531e+01 
5.775902253501e+01 3.204807435836e+01 
5.781591399534e+01 3.206674593225e+01 
5.807814271436e+01 3.204740246599e+01 
5.812555598653e+01 3.206610028482e+01 
5.839407169248e+01 3.204673806013e+01 
5.843210155875e+01 3.206546180061e+01 
5.870684137983e+01 3.204608104622e+01 
5.873558167295e+01 3.206483038879e+01 
5.901648337102e+01 3.204543133121e+01 
5.903602698531e+01 3.206420596001e+01 
5.932302894324e+01 3.204478882354e+01 
5.933346784553e+01 3.206358842640e+01 
5.962650905744e+01 3.204415343312e+01 
5.962793429771e+01 3.206297770157e+01 
5.991945608649e+01 3.206237370052e+01 
5.992695436981e+01 3.204352507128e+01 
6.020806265775e+01 3.206177633964e+01 
6.022439523002e+01 3.204290365073e+01 
6.049378316199e+01 3.206118553669e+01 
6.051886168221e+01 3.204228908558e+01 
6.077664646022e+01 3.206060121072e+01 
6.081038347099e+01 3.204168129125e+01 
6.105668112450e+01 3.206002328211e+01 
6.109899004224e+01 3.204108018450e+01 
6.133391544113e+01 3.205945167246e+01 
6.138471054649e+01 3.204048568337e+01 
6.160837741635e+01 3.205888630464e+01 
6.166757384472e+01 3.203989770713e+01 
6.188009477408e+01 3.205832710270e+01 
6.194760850899e+01 3.203931617632e+01 
6.214909495900e+01 3.205777399191e+01 
6.222484282563e+01 3.203874101265e+01 
6.241540514203e+01 3.205722689865e+01 
6.249930480085e+01 3.203817213903e+01 
6.267905222064e+01 3.205668575048e+01 
6.277102215858e+01 3.203760947952e+01 
6.294006282689e+01 3.205615047601e+01 
6.304002234349e+01 3.203705295932e+01 
6.319846332748e+01 3.205562100496e+01 
6.330633252652e+01 3.203650250473e+01 
6.345427982391e+01 3.205509726810e+01 
6.356997960513e+01 3.203595804316e+01 
6.370753815510e+01 3.205457919725e+01 
6.383099021138e+01 3.203541950305e+01 
6.395826390269e+01 3.205406672521e+01 
6.408939071197e+01 3.203488681391e+01 
6.420648239346e+01 3.205355978579e+01 
6.434520720840e+01 3.203435990625e+01 
6.445221869929e+01 3.205305831378e+01 
6.459846553960e+01 3.203383871160e+01 
6.469549764223e+01 3.205256224490e+01 
6.484919128719e+01 3.203332316246e+01 
6.493634379683e+01 3.205207151579e+01 
6.509740977795e+01 3.203281319230e+01 
6.517478148992e+01 3.205158606404e+01 
6.534314608379e+01 3.203230873554e+01 
6.541083480553e+01 3.205110582809e+01 
6.558642502672e+01 3.203180972751e+01 
6.564452758707e+01 3.205063074727e+01 
6.582727118133e+01 3.203131610444e+01 
6.587588343964e+01 3.205016076177e+01 
6.606570887441e+01 3.203082780349e+01 
6.610492573467e+01 3.204969581261e+01 
6.630176219002e+01 3.203034476265e+01 
6.633167760682e+01 3.204923584162e+01 
6.653545497157e+01 3.202986692079e+01 
6.655616196134e+01 3.204878079146e+01 
6.676681082414e+01 3.202939421761e+01 
6.677840147333e+01 3.204833060555e+01 
6.699585311916e+01 3.202892659364e+01 
6.699841858985e+01 3.204788522811e+01 
6.721623553436e+01 3.204744460411e+01 
6.722260499132e+01 3.202846399021e+01 
6.743187430861e+01 3.204700867926e+01 
6.744708934583e+01 3.202800634945e+01 
6.764535669446e+01 3.204657740000e+01 
6.766932885783e+01 3.202755361428e+01 
6.785670425569e+01 3.204615071349e+01 
6.788934597435e+01 3.202710572837e+01 
6.806593834229e+01 3.204572856758e+01 
6.810716291885e+01 3.202666263615e+01 
6.827308008957e+01 3.204531091083e+01 
6.832280169310e+01 3.202622428278e+01 
6.847815041981e+01 3.204489769247e+01 
6.853628407896e+01 3.202579061416e+01 
6.868117004650e+01 3.204448886239e+01 
6.874763164018e+01 3.202536157689e+01 
6.888215947589e+01 3.204408437113e+01 
6.895686572678e+01 3.202493711826e+01 
6.908113901115e+01 3.204368416988e+01 
6.916400747406e+01 3.202451718628e+01 
6.927812875118e+01 3.204328821047e+01 
6.936907780430e+01 3.202410172960e+01 
6.947314859471e+01 3.204289644532e+01 
6.957209743099e+01 3.202369069757e+01 
6.966621824168e+01 3.204250882747e+01 
6.977308686038e+01 3.202328404016e+01 
6.985735719210e+01 3.204212531058e+01 
6.997206639564e+01 3.202288170800e+01 
7.004658475229e+01 3.204174584887e+01 
7.016905613567e+01 3.202248365235e+01 
7.023392003654e+01 3.204137039715e+01 
7.036407597920e+01 3.202208982509e+01 
7.041938196813e+01 3.204099891080e+01 
7.055714562618e+01 3.202170017870e+01 
7.060298928060e+01 3.204063134575e+01 
7.074828457660e+01 3.202131466628e+01 
7.078476051887e+01 3.204026765848e+01 
7.093751213678e+01 3.202093324152e+01 
7.096471404306e+01 3.203990780604e+01 
7.112484742103e+01 3.202055585867e+01 
7.114286803212e+01 3.203955174595e+01 
7.131030935263e+01 3.202018247257e+01 
7.131924048228e+01 3.203919943632e+01 
7.149384920809e+01 3.203885083572e+01 
7.149391666510e+01 3.201981303863e+01 
7.166671184600e+01 3.203850590327e+01 
7.167568790337e+01 3.201944751279e+01 
7.183784585796e+01 3.203816459857e+01 
7.185564142755e+01 3.201908585155e+01 
7.200726852963e+01 3.203782688170e+01 
7.203379541661e+01 3.201872801196e+01 
7.217499697396e+01 3.203749271325e+01 
7.221016786677e+01 3.201837395158e+01 
7.234104813457e+01 3.203716205427e+01 
7.238477659258e+01 3.201802362849e+01 
7.250543878400e+01 3.203683486628e+01 
7.255763923049e+01 3.201767700129e+01 
7.266818552702e+01 3.203651111126e+01 
7.272877324245e+01 3.201733402910e+01 
7.282930480145e+01 3.203619075165e+01 
7.289819591412e+01 3.201699467151e+01 
7.298881288407e+01 3.203587375034e+01 
7.306592435845e+01 3.201665888861e+01 
7.314672588596e+01 3.203556007067e+01 
7.323197551907e+01 3.201632664100e+01 
7.330305975594e+01 3.203524967640e+01 
7.339636616849e+01 3.201599788971e+01 
7.345783028884e+01 3.203494253171e+01 
7.355911291152e+01 3.201567259627e+01 
7.361105311832e+01 3.203463860124e+01 
7.372023218595e+01 3.201535072266e+01 
7.376274371996e+01 3.203433785001e+01 
7.387974026856e+01 3.201503223133e+01 
7.391291741449e+01 3.203404024347e+01 
7.403765327046e+01 3.201471708517e+01 
7.406158937080e+01 3.203374574748e+01 
7.419398714043e+01 3.201440524750e+01 
7.420877460642e+01 3.203345432829e+01 
7.434875767334e+01 3.201409668209e+01 
7.435448799054e+01 3.203316595255e+01 
7.449874424171e+01 3.203288058727e+01 
7.450198050281e+01 3.201379135314e+01 
7.464155792832e+01 3.203259819990e+01 
7.465367110445e+01 3.201348922528e+01 
7.478294347935e+01 3.203231875822e+01 
7.480384479898e+01 3.201319026355e+01 
7.492291517670e+01 3.203204223039e+01 
7.495251675529e+01 3.201289443339e+01 
7.506148715561e+01 3.203176858497e+01 
7.509970199091e+01 3.201260170069e+01 
7.519867341534e+01 3.203149779085e+01 
7.524541537503e+01 3.201231203168e+01 
7.533448781405e+01 3.203122981728e+01 
7.538967162620e+01 3.201202539303e+01 
7.546894406643e+01 3.203096463388e+01 
7.553248531282e+01 3.201174175179e+01 
7.560205575439e+01 3.203070221062e+01 
7.567387086384e+01 3.201146107538e+01 
7.573383632705e+01 3.203044251780e+01 
7.581384256119e+01 3.201118333163e+01 
7.586429909564e+01 3.203018552606e+01 
7.595241454011e+01 3.201090848872e+01 
7.599345723624e+01 3.202993120637e+01 
7.608960079984e+01 3.201063651520e+01 
7.612132379503e+01 3.202967953007e+01 
7.622541519854e+01 3.201036738000e+01 
7.624791168829e+01 3.202943046877e+01 
7.635987145092e+01 3.201010105241e+01 
7.637323370243e+01 3.202918399445e+01 
7.649298313888e+01 3.200983750205e+01 
7.649730249652e+01 3.202894007937e+01 
7.662013060226e+01 3.202869869615e+01 
7.662476371154e+01 3.200957669892e+01 
7.674173042653e+01 3.202845981767e+01 
7.675522648014e+01 3.200931861335e+01 
7.686211425382e+01 3.202822341714e+01 
7.688438462073e+01 3.200906321601e+01 
7.698129424356e+01 3.202798946808e+01 
7.701225117952e+01 3.200881047792e+01 
7.709928243251e+01 3.202775794430e+01 
7.713883907279e+01 3.200856037042e+01 
7.721609073987e+01 3.202752881991e+01 
7.726416108693e+01 3.200831286518e+01 
7.733173096440e+01 3.202730206930e+01 
7.738822988101e+01 3.200806793421e+01 
7.744621478682e+01 3.202707766715e+01 
7.751105798676e+01 3.200782554982e+01 
7.755955376955e+01 3.202685558844e+01 
7.763265781102e+01 3.200758568465e+01 
7.767175936170e+01 3.202663580842e+01 
7.775304163832e+01 3.200734831163e+01 
7.778284289869e+01 3.202641830260e+01 
7.787222162805e+01 3.200711340402e+01 
7.789281559933e+01 3.202620304680e+01 
7.799020981700e+01 3.200688093538e+01 
7.800168857336e+01 3.202599001707e+01 
7.810701812436e+01 3.200665087956e+01 
7.810947281840e+01 3.202577918976e+01 
7.821617921960e+01 3.202557054147e+01 
7.822265834889e+01 3.200642321073e+01 
7.832181855707e+01 3.202536404907e+01 
7.833714217131e+01 3.200619790332e+01 
7.842640150274e+01 3.202515968965e+01 
7.845048115404e+01 3.200597493208e+01 
7.852993861740e+01 3.202495744061e+01 
7.856268674620e+01 3.200575427202e+01 
7.863244036064e+01 3.202475727957e+01 
7.867377028318e+01 3.200553589844e+01 
7.873391708767e+01 3.202455918439e+01 
7.878374298382e+01 3.200531978694e+01 
7.883437904625e+01 3.202436313320e+01 
7.889261595785e+01 3.200510591335e+01 
7.893383638659e+01 3.202416910436e+01 
7.900040020290e+01 3.200489425382e+01 
7.903229915549e+01 3.202397707645e+01 
7.910710660410e+01 3.200468478473e+01 
7.912977729583e+01 3.202378702833e+01 
7.921274594156e+01 3.200447748274e+01 
7.922628065382e+01 3.202359893906e+01 
7.931732888724e+01 3.200427232479e+01 
7.932181897829e+01 3.202341278795e+01 
7.941640192011e+01 3.202322855451e+01 
7.942086600189e+01 3.200406928804e+01 
7.951003903147e+01 3.202304621850e+01 
7.952336774514e+01 3.200386834994e+01 
7.960273977049e+01 3.202286575991e+01 
7.962484447217e+01 3.200366948817e+01 
7.969451350306e+01 3.202268715893e+01 
7.972530643074e+01 3.200347268067e+01 
7.978536949953e+01 3.202251039596e+01 
7.982476377109e+01 3.200327790562e+01 
7.987531693657e+01 3.202233545164e+01 
7.992322653998e+01 3.200308514144e+01 
7.996436489903e+01 3.202216230682e+01 
8.002070468033e+01 3.200289436682e+01 
8.005252238180e+01 3.202199094254e+01 
8.011720803831e+01 3.200270556064e+01 
8.013979828895e+01 3.202182134007e+01 
8.021274636279e+01 3.200251870205e+01 
8.022620143562e+01 3.202165348088e+01 
8.030732930460e+01 3.200233377042e+01 
8.031174055233e+01 3.202148734661e+01 
8.039642427886e+01 3.202132291915e+01 
8.040096641596e+01 3.200215074534e+01 
8.048026116611e+01 3.202116018056e+01 
8.049366715498e+01 3.200196960664e+01 
8.056325968304e+01 3.202099911311e+01 
8.058544088756e+01 3.200179033437e+01 
8.064542821568e+01 3.202083969924e+01 
8.067629688403e+01 3.200161290879e+01 
8.072677506362e+01 3.202068192160e+01 
8.076624432106e+01 3.200143731039e+01 
8.080730844433e+01 3.202052576303e+01 
8.085529228352e+01 3.200126351988e+01 
8.088703649218e+01 3.202037120655e+01 
8.094344976629e+01 3.200109151816e+01 
8.096596725749e+01 3.202021823537e+01 
8.103072567345e+01 3.200092128637e+01 
8.104410871340e+01 3.202006683287e+01 
8.111712882012e+01 3.200075280583e+01 
8.112146875482e+01 3.201991698263e+01 
8.119805519741e+01 3.201976866839e+01 
8.120266793682e+01 3.200058605809e+01 
8.127387577652e+01 3.201962187407e+01 
8.128735166335e+01 3.200042102489e+01 
8.134893814884e+01 3.201947658378e+01 
8.137118855061e+01 3.200025768816e+01 
8.142324989650e+01 3.201933278178e+01 
8.145418706754e+01 3.200009603006e+01 
8.149681852861e+01 3.201919045252e+01 
8.153635560018e+01 3.199993603291e+01 
8.161770244811e+01 3.199977767924e+01 
8.169823582883e+01 3.199962095178e+01 
8.177796387668e+01 3.199946583343e+01 
8.185689464198e+01 3.199931230730e+01 
8.193503609789e+01 3.199916035666e+01 
8.201239613931e+01 3.199900996499e+01 
8.208898258190e+01 3.199886111592e+01 
8.216480316102e+01 3.199871379327e+01 
8.223986553334e+01 3.199856798105e+01 
8.231417728100e+01 3.199842366344e+01 
8.238774591310e+01 3.199828082477e+01 
