 TITLE = "Profiles along polylines"
 VARIABLES = "DIST" "HEAD" 
 ZONE T="TIME=0.000000000000e+00"
1.680337110415e+01 0.000000000000e+00 
1.704558031912e+01 0.000000000000e+00 
1.722620404841e+01 0.000000000000e+00 
1.746841326339e+01 0.000000000000e+00 
1.764480866555e+01 0.000000000000e+00 
1.788701788053e+01 0.000000000000e+00 
1.805922723542e+01 0.000000000000e+00 
1.830143645040e+01 0.000000000000e+00 
1.846950161944e+01 0.000000000000e+00 
1.871171083442e+01 0.000000000000e+00 
1.887567326110e+01 0.000000000000e+00 
1.911788247607e+01 0.000000000000e+00 
1.927778318652e+01 0.000000000000e+00 
1.951999240149e+01 0.000000000000e+00 
1.967587201277e+01 0.000000000000e+00 
1.991808122774e+01 0.000000000000e+00 
2.006997995078e+01 0.000000000000e+00 
2.031218916576e+01 0.000000000000e+00 
2.046014680827e+01 0.000000000000e+00 
2.070235602324e+01 0.000000000000e+00 
2.084641199513e+01 0.000000000000e+00 
2.108862121010e+01 0.000000000000e+00 
2.122881453142e+01 0.000000000000e+00 
2.147102374639e+01 0.000000000000e+00 
2.160739304206e+01 0.000000000000e+00 
2.184960225703e+01 0.000000000000e+00 
2.198218576740e+01 0.000000000000e+00 
2.222439498237e+01 0.000000000000e+00 
2.235323056555e+01 0.000000000000e+00 
2.259543978052e+01 0.000000000000e+00 
2.272056491492e+01 0.000000000000e+00 
2.296277412989e+01 0.000000000000e+00 
2.308422592168e+01 0.000000000000e+00 
2.332643513666e+01 0.000000000000e+00 
2.344425031686e+01 0.000000000000e+00 
2.368645953183e+01 0.000000000000e+00 
2.380067446897e+01 0.000000000000e+00 
2.404288368394e+01 0.000000000000e+00 
2.415353438083e+01 0.000000000000e+00 
2.439574359581e+01 0.000000000000e+00 
2.450286569431e+01 0.000000000000e+00 
2.474507490928e+01 0.000000000000e+00 
2.484870369480e+01 0.000000000000e+00 
2.509091290977e+01 0.000000000000e+00 
2.519108331323e+01 0.000000000000e+00 
2.543329252821e+01 0.000000000000e+00 
2.553003913568e+01 0.000000000000e+00 
2.577224835065e+01 0.000000000000e+00 
2.586560539981e+01 0.000000000000e+00 
2.610781461478e+01 0.000000000000e+00 
2.619781600192e+01 0.000000000000e+00 
2.644002521689e+01 0.000000000000e+00 
2.652670449840e+01 0.000000000000e+00 
2.676891371338e+01 0.000000000000e+00 
2.685230411006e+01 0.000000000000e+00 
2.709451332503e+01 0.000000000000e+00 
2.717464772604e+01 0.000000000000e+00 
2.741685694102e+01 0.000000000000e+00 
2.749376790539e+01 0.000000000000e+00 
2.773597712037e+01 0.000000000000e+00 
2.780969688351e+01 0.000000000000e+00 
2.805190609848e+01 0.000000000000e+00 
2.812246657086e+01 0.000000000000e+00 
2.836467578583e+01 0.000000000000e+00 
2.843210856205e+01 0.000000000000e+00 
2.867431777702e+01 0.000000000000e+00 
2.873865413427e+01 0.000000000000e+00 
2.898086334924e+01 0.000000000000e+00 
2.904213424847e+01 0.000000000000e+00 
2.928434346344e+01 0.000000000000e+00 
2.934257956084e+01 0.000000000000e+00 
2.958478877581e+01 0.000000000000e+00 
2.964002042105e+01 0.000000000000e+00 
2.988222963602e+01 0.000000000000e+00 
2.993448687324e+01 0.000000000000e+00 
3.017669608821e+01 0.000000000000e+00 
3.022600866201e+01 0.000000000000e+00 
3.046821787699e+01 0.000000000000e+00 
3.051461523327e+01 0.000000000000e+00 
3.075682444824e+01 0.000000000000e+00 
3.080033573751e+01 0.000000000000e+00 
3.104254495249e+01 0.000000000000e+00 
3.108319903574e+01 0.000000000000e+00 
3.132540825072e+01 0.000000000000e+00 
3.136323370002e+01 0.000000000000e+00 
3.160544291499e+01 0.000000000000e+00 
3.164046801665e+01 0.000000000000e+00 
3.188267723163e+01 0.000000000000e+00 
3.191492999187e+01 0.000000000000e+00 
3.215713920684e+01 0.000000000000e+00 
3.218664734960e+01 0.000000000000e+00 
3.242885656457e+01 0.000000000000e+00 
3.245564753452e+01 0.000000000000e+00 
3.269785674949e+01 0.000000000000e+00 
3.272195771755e+01 0.000000000000e+00 
3.296416693252e+01 0.000000000000e+00 
3.298560479616e+01 0.000000000000e+00 
3.322781401113e+01 0.000000000000e+00 
3.324661540241e+01 0.000000000000e+00 
3.348882461738e+01 0.000000000000e+00 
3.350501590299e+01 0.000000000000e+00 
3.374722511797e+01 0.000000000000e+00 
3.376083239943e+01 0.000000000000e+00 
3.400304161440e+01 0.000000000000e+00 
3.401409073062e+01 0.000000000000e+00 
3.425629994560e+01 0.000000000000e+00 
3.426481647821e+01 0.000000000000e+00 
3.450702569318e+01 0.000000000000e+00 
3.451303496898e+01 0.000000000000e+00 
3.475524418395e+01 0.000000000000e+00 
3.475877127481e+01 0.000000000000e+00 
3.500098048979e+01 0.000000000000e+00 
3.500205021775e+01 0.000000000000e+00 
3.524289637235e+01 0.000000000000e+00 
3.524425943272e+01 0.000000000000e+00 
3.548133406544e+01 0.000000000000e+00 
3.548510558732e+01 0.000000000000e+00 
3.571738738105e+01 0.000000000000e+00 
3.572354328041e+01 0.000000000000e+00 
3.595108016259e+01 0.000000000000e+00 
3.595959659602e+01 0.000000000000e+00 
3.618243601517e+01 0.000000000000e+00 
3.619328937757e+01 0.000000000000e+00 
3.641147831019e+01 0.000000000000e+00 
3.642464523014e+01 0.000000000000e+00 
3.663823018234e+01 0.000000000000e+00 
3.665368752516e+01 0.000000000000e+00 
3.686271453686e+01 0.000000000000e+00 
3.688043939732e+01 0.000000000000e+00 
3.708495404885e+01 0.000000000000e+00 
3.710492375183e+01 0.000000000000e+00 
3.730497116538e+01 0.000000000000e+00 
3.732716326383e+01 0.000000000000e+00 
3.752278810988e+01 0.000000000000e+00 
3.754718038035e+01 0.000000000000e+00 
3.773842688413e+01 0.000000000000e+00 
3.776499732485e+01 0.000000000000e+00 
3.795190926999e+01 0.000000000000e+00 
3.798063609910e+01 0.000000000000e+00 
3.816325683121e+01 0.000000000000e+00 
3.819411848496e+01 0.000000000000e+00 
3.837249091781e+01 0.000000000000e+00 
3.840546604619e+01 0.000000000000e+00 
3.857963266509e+01 0.000000000000e+00 
3.861470013279e+01 0.000000000000e+00 
3.878470299533e+01 0.000000000000e+00 
3.882184188007e+01 0.000000000000e+00 
3.898772262202e+01 0.000000000000e+00 
3.902691221030e+01 0.000000000000e+00 
3.918871205141e+01 0.000000000000e+00 
3.922993183699e+01 0.000000000000e+00 
3.938769158668e+01 0.000000000000e+00 
3.943092126638e+01 0.000000000000e+00 
3.958468132671e+01 0.000000000000e+00 
3.962990080165e+01 0.000000000000e+00 
3.977970117023e+01 0.000000000000e+00 
3.982689054168e+01 0.000000000000e+00 
3.997277081721e+01 0.000000000000e+00 
4.002191038520e+01 0.000000000000e+00 
4.016390976763e+01 0.000000000000e+00 
4.021498003218e+01 0.000000000000e+00 
4.035313732781e+01 0.000000000000e+00 
4.040611898260e+01 0.000000000000e+00 
4.054047261206e+01 0.000000000000e+00 
4.059534654279e+01 0.000000000000e+00 
4.072593454366e+01 0.000000000000e+00 
4.078268182704e+01 0.000000000000e+00 
4.090954185613e+01 0.000000000000e+00 
4.096814375863e+01 0.000000000000e+00 
4.109131309440e+01 0.000000000000e+00 
4.115175107110e+01 0.000000000000e+00 
4.127126661859e+01 0.000000000000e+00 
4.133352230937e+01 0.000000000000e+00 
4.144942060764e+01 0.000000000000e+00 
4.151347583356e+01 0.000000000000e+00 
4.162579305781e+01 0.000000000000e+00 
4.169162982262e+01 0.000000000000e+00 
4.180040178361e+01 0.000000000000e+00 
4.186800227278e+01 0.000000000000e+00 
4.197326442153e+01 0.000000000000e+00 
4.204261099859e+01 0.000000000000e+00 
4.214439843349e+01 0.000000000000e+00 
4.221547363650e+01 0.000000000000e+00 
4.231382110516e+01 0.000000000000e+00 
4.238660764846e+01 0.000000000000e+00 
4.248154954948e+01 0.000000000000e+00 
4.255603032013e+01 0.000000000000e+00 
4.264760071010e+01 0.000000000000e+00 
4.272375876446e+01 0.000000000000e+00 
4.281199135953e+01 0.000000000000e+00 
4.288980992508e+01 0.000000000000e+00 
4.297473810255e+01 0.000000000000e+00 
4.305420057450e+01 0.000000000000e+00 
4.313585737698e+01 0.000000000000e+00 
4.321694731752e+01 0.000000000000e+00 
4.329536545960e+01 0.000000000000e+00 
4.337806659195e+01 0.000000000000e+00 
4.345327846149e+01 0.000000000000e+00 
4.353757467457e+01 0.000000000000e+00 
4.360961233147e+01 0.000000000000e+00 
4.369548767647e+01 0.000000000000e+00 
4.376438286437e+01 0.000000000000e+00 
4.385182154644e+01 0.000000000000e+00 
4.391760569385e+01 0.000000000000e+00 
4.400659207935e+01 0.000000000000e+00 
4.406929629549e+01 0.000000000000e+00 
4.415981490882e+01 0.000000000000e+00 
4.421946999002e+01 0.000000000000e+00 
4.431150551046e+01 0.000000000000e+00 
4.436814194633e+01 0.000000000000e+00 
4.446167920499e+01 0.000000000000e+00 
4.451532718195e+01 0.000000000000e+00 
4.461035116130e+01 0.000000000000e+00 
4.466104056607e+01 0.000000000000e+00 
4.475753639692e+01 0.000000000000e+00 
4.480529681724e+01 0.000000000000e+00 
4.490324978104e+01 0.000000000000e+00 
4.494811050386e+01 0.000000000000e+00 
4.504750603221e+01 0.000000000000e+00 
4.508949605488e+01 0.000000000000e+00 
4.519031971883e+01 0.000000000000e+00 
4.522946775223e+01 0.000000000000e+00 
4.533170526985e+01 0.000000000000e+00 
4.536803973114e+01 0.000000000000e+00 
4.547167696720e+01 0.000000000000e+00 
4.550522599088e+01 0.000000000000e+00 
4.561024894612e+01 0.000000000000e+00 
4.564104038958e+01 0.000000000000e+00 
4.574743520585e+01 0.000000000000e+00 
4.577549664196e+01 0.000000000000e+00 
4.588324960455e+01 0.000000000000e+00 
4.590860832992e+01 0.000000000000e+00 
4.601770585693e+01 0.000000000000e+00 
4.604038890258e+01 0.000000000000e+00 
4.615081754489e+01 0.000000000000e+00 
4.617085167118e+01 0.000000000000e+00 
4.628259811755e+01 0.000000000000e+00 
4.630000981177e+01 0.000000000000e+00 
4.641306088615e+01 0.000000000000e+00 
4.642787637056e+01 0.000000000000e+00 
4.654221902675e+01 0.000000000000e+00 
4.655446426383e+01 0.000000000000e+00 
4.667008558554e+01 0.000000000000e+00 
4.667978627797e+01 0.000000000000e+00 
4.679667347880e+01 0.000000000000e+00 
4.680385507205e+01 0.000000000000e+00 
4.692199549294e+01 0.000000000000e+00 
4.692668317780e+01 0.000000000000e+00 
4.704606428703e+01 0.000000000000e+00 
4.704828300206e+01 0.000000000000e+00 
4.716866682936e+01 0.000000000000e+00 
4.716889239277e+01 0.000000000000e+00 
4.728784681909e+01 0.000000000000e+00 
4.729049221703e+01 0.000000000000e+00 
4.740583500804e+01 0.000000000000e+00 
4.741087604433e+01 0.000000000000e+00 
4.752264331540e+01 0.000000000000e+00 
4.753005603406e+01 0.000000000000e+00 
4.763828353993e+01 0.000000000000e+00 
4.764804422301e+01 0.000000000000e+00 
4.775276736235e+01 0.000000000000e+00 
4.776485253038e+01 0.000000000000e+00 
4.786610634508e+01 0.000000000000e+00 
4.788049275490e+01 0.000000000000e+00 
4.797831193724e+01 0.000000000000e+00 
4.799497657733e+01 0.000000000000e+00 
4.808939547422e+01 0.000000000000e+00 
4.810831556006e+01 0.000000000000e+00 
4.819936817486e+01 0.000000000000e+00 
4.822052115221e+01 0.000000000000e+00 
4.830824114890e+01 0.000000000000e+00 
4.833160468919e+01 0.000000000000e+00 
4.841602539394e+01 0.000000000000e+00 
4.844157738983e+01 0.000000000000e+00 
4.852273179514e+01 0.000000000000e+00 
4.855045036387e+01 0.000000000000e+00 
4.862837113260e+01 0.000000000000e+00 
4.865823460891e+01 0.000000000000e+00 
4.873295407828e+01 0.000000000000e+00 
4.876494101011e+01 0.000000000000e+00 
4.883649119293e+01 0.000000000000e+00 
4.887058034757e+01 0.000000000000e+00 
4.893899293618e+01 0.000000000000e+00 
4.897516329325e+01 0.000000000000e+00 
4.904046966321e+01 0.000000000000e+00 
4.907870040791e+01 0.000000000000e+00 
4.914093162179e+01 0.000000000000e+00 
4.918120215115e+01 0.000000000000e+00 
4.924038896213e+01 0.000000000000e+00 
4.928267887818e+01 0.000000000000e+00 
4.933885173103e+01 0.000000000000e+00 
4.938314083676e+01 0.000000000000e+00 
4.943632987137e+01 0.000000000000e+00 
4.948259817710e+01 0.000000000000e+00 
4.953283322935e+01 0.000000000000e+00 
4.958106094600e+01 0.000000000000e+00 
4.962837155383e+01 0.000000000000e+00 
4.967853908634e+01 0.000000000000e+00 
4.972295449565e+01 0.000000000000e+00 
4.977504244433e+01 0.000000000000e+00 
4.981659160700e+01 0.000000000000e+00 
4.987058076880e+01 0.000000000000e+00 
4.990929234602e+01 0.000000000000e+00 
4.996516371062e+01 0.000000000000e+00 
5.000106607860e+01 0.000000000000e+00 
5.005880082198e+01 0.000000000000e+00 
5.009192207507e+01 0.000000000000e+00 
5.015150156100e+01 0.000000000000e+00 
5.018186951211e+01 0.000000000000e+00 
5.024327529357e+01 0.000000000000e+00 
5.027091747457e+01 0.000000000000e+00 
5.033413129004e+01 0.000000000000e+00 
5.035907495733e+01 0.000000000000e+00 
5.042407872708e+01 0.000000000000e+00 
5.044635086449e+01 0.000000000000e+00 
5.051312668954e+01 0.000000000000e+00 
5.053275401116e+01 0.000000000000e+00 
5.060128417231e+01 0.000000000000e+00 
5.061829312786e+01 0.000000000000e+00 
5.068856007946e+01 0.000000000000e+00 
5.070297685439e+01 0.000000000000e+00 
5.077496322613e+01 0.000000000000e+00 
5.078681374165e+01 0.000000000000e+00 
5.086050234284e+01 0.000000000000e+00 
5.086981225858e+01 0.000000000000e+00 
5.094518606937e+01 0.000000000000e+00 
5.095198079122e+01 0.000000000000e+00 
5.102902295662e+01 0.000000000000e+00 
5.103332763916e+01 0.000000000000e+00 
5.111202147355e+01 0.000000000000e+00 
5.111386101987e+01 0.000000000000e+00 
5.119358906772e+01 0.000000000000e+00 
5.119419000619e+01 0.000000000000e+00 
5.127251983303e+01 0.000000000000e+00 
5.127553685413e+01 0.000000000000e+00 
5.135066128894e+01 0.000000000000e+00 
5.135607023484e+01 0.000000000000e+00 
5.142802133036e+01 0.000000000000e+00 
5.143579828269e+01 0.000000000000e+00 
5.150460777294e+01 0.000000000000e+00 
5.151472904800e+01 0.000000000000e+00 
5.158042835206e+01 0.000000000000e+00 
5.159287050391e+01 0.000000000000e+00 
5.165549072438e+01 0.000000000000e+00 
5.167023054533e+01 0.000000000000e+00 
5.172980247204e+01 0.000000000000e+00 
5.174681698792e+01 0.000000000000e+00 
5.180337110415e+01 0.000000000000e+00 
5.182263756703e+01 0.000000000000e+00 
5.189769993935e+01 0.000000000000e+00 
5.197201168701e+01 0.000000000000e+00 
5.204558031912e+01 0.000000000000e+00 
 TITLE = "Profiles along polylines"
 VARIABLES = "DIST" "HEAD" 
 ZONE T="TIME=1.797693134862e+308"
1.680337110415e+01 3.328731888967e+01 
1.704558031912e+01 3.327649221959e+01 
1.722620404841e+01 3.328700708880e+01 
1.746841326339e+01 3.327617924621e+01 
1.764480866555e+01 3.328670034574e+01 
1.788701788053e+01 3.327587125153e+01 
1.805922723542e+01 3.328639856472e+01 
1.830143645040e+01 3.327556814421e+01 
1.846950161944e+01 3.328610165162e+01 
1.871171083442e+01 3.327526983427e+01 
1.887567326110e+01 3.328580951386e+01 
1.911788247607e+01 3.327497623311e+01 
1.927778318652e+01 3.328552206033e+01 
1.951999240149e+01 3.327468725361e+01 
1.967587201277e+01 3.328523920143e+01 
1.991808122774e+01 3.327440281010e+01 
2.006997995078e+01 3.328496084908e+01 
2.031218916576e+01 3.327412281838e+01 
2.046014680827e+01 3.328468691677e+01 
2.070235602324e+01 3.327384719574e+01 
2.084641199513e+01 3.328441731954e+01 
2.108862121010e+01 3.327357586097e+01 
2.122881453142e+01 3.328415197402e+01 
2.147102374639e+01 3.327330873433e+01 
2.160739304206e+01 3.328389079843e+01 
2.184960225703e+01 3.327304573756e+01 
2.198218576740e+01 3.328363371257e+01 
2.222439498237e+01 3.327278679391e+01 
2.235323056555e+01 3.328338063785e+01 
2.259543978052e+01 3.327253182808e+01 
2.272056491492e+01 3.328313149726e+01 
2.296277412989e+01 3.327228076623e+01 
2.308422592168e+01 3.328288621535e+01 
2.332643513666e+01 3.327203353598e+01 
2.344425031686e+01 3.328264471826e+01 
2.368645953183e+01 3.327179006639e+01 
2.380067446897e+01 3.328240693366e+01 
2.404288368394e+01 3.327155028795e+01 
2.415353438083e+01 3.328217279077e+01 
2.439574359581e+01 3.327131413253e+01 
2.450286569431e+01 3.328194222031e+01 
2.474507490928e+01 3.327108153343e+01 
2.484870369480e+01 3.328171515451e+01 
2.509091290977e+01 3.327085242529e+01 
2.519108331323e+01 3.328149152706e+01 
2.543329252821e+01 3.327062674409e+01 
2.553003913568e+01 3.328127127311e+01 
2.577224835065e+01 3.327040442718e+01 
2.586560539981e+01 3.328105432922e+01 
2.610781461478e+01 3.327018541318e+01 
2.619781600192e+01 3.328084063335e+01 
2.644002521689e+01 3.326996964200e+01 
2.652670449840e+01 3.328063012483e+01 
2.676891371338e+01 3.326975705483e+01 
2.685230411006e+01 3.328042274435e+01 
2.709451332503e+01 3.326954759406e+01 
2.717464772604e+01 3.328021843388e+01 
2.741685694102e+01 3.326934120334e+01 
2.749376790539e+01 3.328001713670e+01 
2.773597712037e+01 3.326913782747e+01 
2.780969688351e+01 3.327981879734e+01 
2.805190609848e+01 3.326893741245e+01 
2.812246657086e+01 3.327962336157e+01 
2.836467578583e+01 3.326873990539e+01 
2.843210856205e+01 3.327943077636e+01 
2.867431777702e+01 3.326854525454e+01 
2.873865413427e+01 3.327924098983e+01 
2.898086334924e+01 3.326835340923e+01 
2.904213424847e+01 3.327905395128e+01 
2.928434346344e+01 3.326816431988e+01 
2.934257956084e+01 3.327886961112e+01 
2.958478877581e+01 3.326797793795e+01 
2.964002042105e+01 3.327868792083e+01 
2.988222963602e+01 3.326779421591e+01 
2.993448687324e+01 3.327850883299e+01 
3.017669608821e+01 3.326761310725e+01 
3.022600866201e+01 3.327833230118e+01 
3.046821787699e+01 3.326743456642e+01 
3.051461523327e+01 3.327815828004e+01 
3.075682444824e+01 3.326725854885e+01 
3.080033573751e+01 3.327798672516e+01 
3.104254495249e+01 3.326708501090e+01 
3.108319903574e+01 3.327781759312e+01 
3.132540825072e+01 3.326691390983e+01 
3.136323370002e+01 3.327765084144e+01 
3.160544291499e+01 3.326674520381e+01 
3.164046801665e+01 3.327748642852e+01 
3.188267723163e+01 3.326657885186e+01 
3.191492999187e+01 3.327732431371e+01 
3.215713920684e+01 3.326641481388e+01 
3.218664734960e+01 3.327716445720e+01 
3.242885656457e+01 3.326625305059e+01 
3.245564753452e+01 3.327700682003e+01 
3.269785674949e+01 3.326609352351e+01 
3.272195771755e+01 3.327685136409e+01 
3.296416693252e+01 3.326593619497e+01 
3.298560479616e+01 3.327669805205e+01 
3.322781401113e+01 3.326578102808e+01 
3.324661540241e+01 3.327654684741e+01 
3.348882461738e+01 3.326562798669e+01 
3.350501590299e+01 3.327639771440e+01 
3.374722511797e+01 3.326547703542e+01 
3.376083239943e+01 3.327625061803e+01 
3.400304161440e+01 3.326532813957e+01 
3.401409073062e+01 3.327610552401e+01 
3.425629994560e+01 3.326518126518e+01 
3.426481647821e+01 3.327596239881e+01 
3.450702569318e+01 3.326503637896e+01 
3.451303496898e+01 3.327582120956e+01 
3.475524418395e+01 3.326489344832e+01 
3.475877127481e+01 3.327568192409e+01 
3.500098048979e+01 3.326475244130e+01 
3.500205021775e+01 3.327554451089e+01 
3.524289637235e+01 3.327540893909e+01 
3.524425943272e+01 3.326461332659e+01 
3.548133406544e+01 3.327527517846e+01 
3.548510558732e+01 3.326447607351e+01 
3.571738738105e+01 3.327514319940e+01 
3.572354328041e+01 3.326434065201e+01 
3.595108016259e+01 3.327501297289e+01 
3.595959659602e+01 3.326420703260e+01 
3.618243601517e+01 3.327488447051e+01 
3.619328937757e+01 3.326407518642e+01 
3.641147831019e+01 3.327475766442e+01 
3.642464523014e+01 3.326394508514e+01 
3.663823018234e+01 3.327463252732e+01 
3.665368752516e+01 3.326381670103e+01 
3.686271453686e+01 3.327450903250e+01 
3.688043939732e+01 3.326369000687e+01 
3.708495404885e+01 3.327438715373e+01 
3.710492375183e+01 3.326356497599e+01 
3.730497116538e+01 3.327426686535e+01 
3.732716326383e+01 3.326344158224e+01 
3.752278810988e+01 3.327414814218e+01 
3.754718038035e+01 3.326331979998e+01 
3.773842688413e+01 3.327403095957e+01 
3.776499732485e+01 3.326319960406e+01 
3.795190926999e+01 3.327391529331e+01 
3.798063609910e+01 3.326308096983e+01 
3.816325683121e+01 3.327380111972e+01 
3.819411848496e+01 3.326296387310e+01 
3.837249091781e+01 3.327368841553e+01 
3.840546604619e+01 3.326284829015e+01 
3.857963266509e+01 3.327357715798e+01 
3.861470013279e+01 3.326273419772e+01 
3.878470299533e+01 3.327346732470e+01 
3.882184188007e+01 3.326262157298e+01 
3.898772262202e+01 3.327335889380e+01 
3.902691221030e+01 3.326251039354e+01 
3.918871205141e+01 3.327325184378e+01 
3.922993183699e+01 3.326240063744e+01 
3.938769158668e+01 3.327314615358e+01 
3.943092126638e+01 3.326229228313e+01 
3.958468132671e+01 3.327304180252e+01 
3.962990080165e+01 3.326218530946e+01 
3.977970117023e+01 3.327293877033e+01 
3.982689054168e+01 3.326207969568e+01 
3.997277081721e+01 3.327283703712e+01 
4.002191038520e+01 3.326197542142e+01 
4.016390976763e+01 3.327273658339e+01 
4.021498003218e+01 3.326187246669e+01 
4.035313732781e+01 3.327263738999e+01 
4.040611898260e+01 3.326177081189e+01 
4.054047261206e+01 3.327253943814e+01 
4.059534654279e+01 3.326167043775e+01 
4.072593454366e+01 3.327244270942e+01 
4.078268182704e+01 3.326157132538e+01 
4.090954185613e+01 3.327234718575e+01 
4.096814375863e+01 3.326147345621e+01 
4.109131309440e+01 3.327225284938e+01 
4.115175107110e+01 3.326137681202e+01 
4.127126661859e+01 3.327215968288e+01 
4.133352230937e+01 3.326128137492e+01 
4.144942060764e+01 3.327206766918e+01 
4.151347583356e+01 3.326118712736e+01 
4.162579305781e+01 3.327197679148e+01 
4.169162982262e+01 3.326109405208e+01 
4.180040178361e+01 3.327188703331e+01 
4.186800227278e+01 3.326100213213e+01 
4.197326442153e+01 3.327179837851e+01 
4.204261099859e+01 3.326091135087e+01 
4.214439843349e+01 3.327171081118e+01 
4.221547363650e+01 3.326082169197e+01 
4.231382110516e+01 3.327162431575e+01 
4.238660764846e+01 3.326073313936e+01 
4.248154954948e+01 3.327153887690e+01 
4.255603032013e+01 3.326064567727e+01 
4.264760071010e+01 3.327145447960e+01 
4.272375876446e+01 3.326055929021e+01 
4.281199135953e+01 3.327137110907e+01 
4.288980992508e+01 3.326047396295e+01 
4.297473810255e+01 3.327128875081e+01 
4.305420057450e+01 3.326038968052e+01 
4.313585737698e+01 3.327120739059e+01 
4.321694731752e+01 3.326030642823e+01 
4.329536545960e+01 3.327112701438e+01 
4.337806659195e+01 3.326022419162e+01 
4.345327846149e+01 3.327104760846e+01 
4.353757467457e+01 3.326014295649e+01 
4.360961233147e+01 3.327096915930e+01 
4.369548767647e+01 3.326006270889e+01 
4.376438286437e+01 3.327089165363e+01 
4.385182154644e+01 3.325998343509e+01 
4.391760569385e+01 3.327081507840e+01 
4.400659207935e+01 3.325990512159e+01 
4.406929629549e+01 3.327073942079e+01 
4.415981490882e+01 3.325982775515e+01 
4.421946999002e+01 3.327066466819e+01 
4.431150551046e+01 3.325975132271e+01 
4.436814194633e+01 3.327059080823e+01 
4.446167920499e+01 3.325967581147e+01 
4.451532718195e+01 3.327051782871e+01 
4.461035116130e+01 3.325960120880e+01 
4.466104056607e+01 3.327044571767e+01 
4.475753639692e+01 3.325952750230e+01 
4.480529681724e+01 3.327037446334e+01 
4.490324978104e+01 3.325945467979e+01 
4.494811050386e+01 3.327030405414e+01 
4.504750603221e+01 3.325938272927e+01 
4.508949605488e+01 3.327023447869e+01 
4.519031971883e+01 3.325931163893e+01 
4.522946775223e+01 3.327016572579e+01 
4.533170526985e+01 3.325924139717e+01 
4.536803973114e+01 3.327009778445e+01 
4.547167696720e+01 3.325917199257e+01 
4.550522599088e+01 3.327003064383e+01 
4.561024894612e+01 3.325910341390e+01 
4.564104038958e+01 3.326996429327e+01 
4.574743520585e+01 3.325903565010e+01 
4.577549664196e+01 3.326989872231e+01 
4.588324960455e+01 3.325896869029e+01 
4.590860832992e+01 3.326983392063e+01 
4.601770585693e+01 3.325890252377e+01 
4.604038890258e+01 3.326976987808e+01 
4.615081754489e+01 3.325883714000e+01 
4.617085167118e+01 3.326970658470e+01 
4.628259811755e+01 3.325877252862e+01 
4.630000981177e+01 3.326964403065e+01 
4.641306088615e+01 3.325870867941e+01 
4.642787637056e+01 3.326958220627e+01 
4.654221902675e+01 3.325864558235e+01 
4.655446426383e+01 3.326952110204e+01 
4.667008558554e+01 3.325858322752e+01 
4.667978627797e+01 3.326946070860e+01 
4.679667347880e+01 3.325852160521e+01 
4.680385507205e+01 3.326940101674e+01 
4.692199549294e+01 3.325846070583e+01 
4.692668317780e+01 3.326934201738e+01 
4.704606428703e+01 3.325840051993e+01 
4.704828300206e+01 3.326928370158e+01 
4.716866682936e+01 3.326922606054e+01 
4.716889239277e+01 3.325834103824e+01 
4.728784681909e+01 3.326916908561e+01 
4.729049221703e+01 3.325828225159e+01 
4.740583500804e+01 3.326911276826e+01 
4.741087604433e+01 3.325822415098e+01 
4.752264331540e+01 3.326905710008e+01 
4.753005603406e+01 3.325816672753e+01 
4.763828353993e+01 3.326900207280e+01 
4.764804422301e+01 3.325810997250e+01 
4.775276736235e+01 3.326894767828e+01 
4.776485253038e+01 3.325805387729e+01 
4.786610634508e+01 3.326889390848e+01 
4.788049275490e+01 3.325799843342e+01 
4.797831193724e+01 3.326884075551e+01 
4.799497657733e+01 3.325794363254e+01 
4.808939547422e+01 3.326878821157e+01 
4.810831556006e+01 3.325788946641e+01 
4.819936817486e+01 3.326873626899e+01 
4.822052115221e+01 3.325783592693e+01 
4.830824114890e+01 3.326868492021e+01 
4.833160468919e+01 3.325778300612e+01 
4.841602539394e+01 3.326863415778e+01 
4.844157738983e+01 3.325773069610e+01 
4.852273179514e+01 3.326858397436e+01 
4.855045036387e+01 3.325767898914e+01 
4.862837113260e+01 3.326853436272e+01 
4.865823460891e+01 3.325762787757e+01 
4.873295407828e+01 3.326848531572e+01 
4.876494101011e+01 3.325757735388e+01 
4.883649119293e+01 3.326843682634e+01 
4.887058034757e+01 3.325752741065e+01 
4.893899293618e+01 3.326838888766e+01 
4.897516329325e+01 3.325747804057e+01 
4.904046966321e+01 3.326834149284e+01 
4.907870040791e+01 3.325742923643e+01 
4.914093162179e+01 3.326829463517e+01 
4.918120215115e+01 3.325738099113e+01 
4.924038896213e+01 3.326824830802e+01 
4.928267887818e+01 3.325733329768e+01 
4.933885173103e+01 3.326820250483e+01 
4.938314083676e+01 3.325728614916e+01 
4.943632987137e+01 3.326815721917e+01 
4.948259817710e+01 3.325723953878e+01 
4.953283322935e+01 3.326811244468e+01 
4.958106094600e+01 3.325719345983e+01 
4.962837155383e+01 3.326806817510e+01 
4.967853908634e+01 3.325714790571e+01 
4.972295449565e+01 3.326802440424e+01 
4.977504244433e+01 3.325710286989e+01 
4.981659160700e+01 3.326798112603e+01 
4.987058076880e+01 3.325705834596e+01 
4.990929234602e+01 3.326793833444e+01 
4.996516371062e+01 3.325701432758e+01 
5.000106607860e+01 3.326789602355e+01 
5.005880082198e+01 3.325697080849e+01 
5.009192207507e+01 3.326785418752e+01 
5.015150156100e+01 3.325692778256e+01 
5.018186951211e+01 3.326781282060e+01 
5.024327529357e+01 3.325688524369e+01 
5.027091747457e+01 3.326777191709e+01 
5.033413129004e+01 3.325684318591e+01 
5.035907495733e+01 3.326773147139e+01 
5.042407872708e+01 3.325680160330e+01 
5.044635086449e+01 3.326769147797e+01 
5.051312668954e+01 3.325676049005e+01 
5.053275401116e+01 3.326765193138e+01 
5.060128417231e+01 3.325671984040e+01 
5.061829312786e+01 3.326761282624e+01 
5.068856007946e+01 3.325667964870e+01 
5.070297685439e+01 3.326757415723e+01 
5.077496322613e+01 3.325663990936e+01 
5.078681374165e+01 3.326753591913e+01 
5.086050234284e+01 3.325660061687e+01 
5.086981225858e+01 3.326749810677e+01 
5.094518606937e+01 3.325656176578e+01 
5.095198079122e+01 3.326746071505e+01 
5.102902295662e+01 3.325652335075e+01 
5.103332763916e+01 3.326742373893e+01 
5.111202147355e+01 3.325648536648e+01 
5.111386101987e+01 3.326738717346e+01 
5.119358906772e+01 3.326735101373e+01 
5.119419000619e+01 3.325644780776e+01 
5.127251983303e+01 3.326731525491e+01 
5.127553685413e+01 3.325641066943e+01 
5.135066128894e+01 3.326727989224e+01 
5.135607023484e+01 3.325637394642e+01 
5.142802133036e+01 3.326724492099e+01 
5.143579828269e+01 3.325633763373e+01 
5.150460777294e+01 3.326721033652e+01 
5.151472904800e+01 3.325630172642e+01 
5.158042835206e+01 3.326717613424e+01 
5.159287050391e+01 3.325626621960e+01 
5.165549072438e+01 3.326714230961e+01 
5.167023054533e+01 3.325623110848e+01 
5.172980247204e+01 3.326710885817e+01 
5.174681698792e+01 3.325619638831e+01 
5.180337110415e+01 3.326707577548e+01 
5.182263756703e+01 3.325616205440e+01 
5.189769993935e+01 3.325612810214e+01 
5.197201168701e+01 3.325609452699e+01 
5.204558031912e+01 3.325606132444e+01 
