 TITLE = "Profiles along polylines"
 VARIABLES = "DIST" "HEAD" 
 ZONE T="TIME=0.000000000000e+00"
5.278771519958e+01 0.000000000000e+00 
5.321054814384e+01 0.000000000000e+00 
5.362915276098e+01 0.000000000000e+00 
5.404357133085e+01 0.000000000000e+00 
5.445384571488e+01 0.000000000000e+00 
5.486001735653e+01 0.000000000000e+00 
5.526212728195e+01 0.000000000000e+00 
5.566021610820e+01 0.000000000000e+00 
5.605432404622e+01 0.000000000000e+00 
5.644449090370e+01 0.000000000000e+00 
5.683075609056e+01 0.000000000000e+00 
5.721315862685e+01 0.000000000000e+00 
5.759173713749e+01 0.000000000000e+00 
5.796652986284e+01 0.000000000000e+00 
5.833757466098e+01 0.000000000000e+00 
5.870490901036e+01 0.000000000000e+00 
5.906857001712e+01 0.000000000000e+00 
5.942859441230e+01 0.000000000000e+00 
5.978501856441e+01 0.000000000000e+00 
6.013787847627e+01 0.000000000000e+00 
6.048720978974e+01 0.000000000000e+00 
6.083304779023e+01 0.000000000000e+00 
6.117542740867e+01 0.000000000000e+00 
6.151438323112e+01 0.000000000000e+00 
6.184994949525e+01 0.000000000000e+00 
6.218216009736e+01 0.000000000000e+00 
6.251104859384e+01 0.000000000000e+00 
6.283664820550e+01 0.000000000000e+00 
6.315899182148e+01 0.000000000000e+00 
6.347811200083e+01 0.000000000000e+00 
6.379404097895e+01 0.000000000000e+00 
6.410681066630e+01 0.000000000000e+00 
6.441645265749e+01 0.000000000000e+00 
6.472299822971e+01 0.000000000000e+00 
6.502647834391e+01 0.000000000000e+00 
6.532692365628e+01 0.000000000000e+00 
6.562436451650e+01 0.000000000000e+00 
6.591883096868e+01 0.000000000000e+00 
6.621035275746e+01 0.000000000000e+00 
6.649895932872e+01 0.000000000000e+00 
6.678467983296e+01 0.000000000000e+00 
6.706754313119e+01 0.000000000000e+00 
6.734757779547e+01 0.000000000000e+00 
6.762481211210e+01 0.000000000000e+00 
6.789927408732e+01 0.000000000000e+00 
6.817099144505e+01 0.000000000000e+00 
6.843999162996e+01 0.000000000000e+00 
6.870630181300e+01 0.000000000000e+00 
6.896994889161e+01 0.000000000000e+00 
6.923095949786e+01 0.000000000000e+00 
6.948935999844e+01 0.000000000000e+00 
6.974517649488e+01 0.000000000000e+00 
6.999843482607e+01 0.000000000000e+00 
7.024916057366e+01 0.000000000000e+00 
7.049737906442e+01 0.000000000000e+00 
7.074311537026e+01 0.000000000000e+00 
7.098639431319e+01 0.000000000000e+00 
7.122724046780e+01 0.000000000000e+00 
7.146567816089e+01 0.000000000000e+00 
7.170173147649e+01 0.000000000000e+00 
7.193542425804e+01 0.000000000000e+00 
7.216678011061e+01 0.000000000000e+00 
7.239582240564e+01 0.000000000000e+00 
7.262257427779e+01 0.000000000000e+00 
7.284705863230e+01 0.000000000000e+00 
7.306929814430e+01 0.000000000000e+00 
7.328931526082e+01 0.000000000000e+00 
7.350713220532e+01 0.000000000000e+00 
7.372277097957e+01 0.000000000000e+00 
7.393625336543e+01 0.000000000000e+00 
7.414760092666e+01 0.000000000000e+00 
7.435683501326e+01 0.000000000000e+00 
7.456397676054e+01 0.000000000000e+00 
7.476904709077e+01 0.000000000000e+00 
7.497206671746e+01 0.000000000000e+00 
7.517305614685e+01 0.000000000000e+00 
7.537203568212e+01 0.000000000000e+00 
7.556902542215e+01 0.000000000000e+00 
7.576404526567e+01 0.000000000000e+00 
7.595711491265e+01 0.000000000000e+00 
7.614825386307e+01 0.000000000000e+00 
7.633748142325e+01 0.000000000000e+00 
7.652481670750e+01 0.000000000000e+00 
7.671027863910e+01 0.000000000000e+00 
7.689388595157e+01 0.000000000000e+00 
7.707565718984e+01 0.000000000000e+00 
7.725561071402e+01 0.000000000000e+00 
7.743376470308e+01 0.000000000000e+00 
7.761013715324e+01 0.000000000000e+00 
7.778474587905e+01 0.000000000000e+00 
7.795760851697e+01 0.000000000000e+00 
7.812874252893e+01 0.000000000000e+00 
7.829816520059e+01 0.000000000000e+00 
7.846589364492e+01 0.000000000000e+00 
7.863194480554e+01 0.000000000000e+00 
7.879633545496e+01 0.000000000000e+00 
7.895908219799e+01 0.000000000000e+00 
7.912020147242e+01 0.000000000000e+00 
7.927970955504e+01 0.000000000000e+00 
7.943762255693e+01 0.000000000000e+00 
7.959395642690e+01 0.000000000000e+00 
7.974872695981e+01 0.000000000000e+00 
7.990194978928e+01 0.000000000000e+00 
8.005364039093e+01 0.000000000000e+00 
8.020381408545e+01 0.000000000000e+00 
8.035248604177e+01 0.000000000000e+00 
8.049967127739e+01 0.000000000000e+00 
8.064538466150e+01 0.000000000000e+00 
8.078964091268e+01 0.000000000000e+00 
8.093245459929e+01 0.000000000000e+00 
8.107384015032e+01 0.000000000000e+00 
8.121381184766e+01 0.000000000000e+00 
8.135238382658e+01 0.000000000000e+00 
8.148957008631e+01 0.000000000000e+00 
8.162538448501e+01 0.000000000000e+00 
8.175984073739e+01 0.000000000000e+00 
8.189295242535e+01 0.000000000000e+00 
8.202473299801e+01 0.000000000000e+00 
8.215519576661e+01 0.000000000000e+00 
8.228435390721e+01 0.000000000000e+00 
8.241222046600e+01 0.000000000000e+00 
8.253880835926e+01 0.000000000000e+00 
8.266413037340e+01 0.000000000000e+00 
8.278819916749e+01 0.000000000000e+00 
8.291102727323e+01 0.000000000000e+00 
8.303262709749e+01 0.000000000000e+00 
8.315301092479e+01 0.000000000000e+00 
8.327219091452e+01 0.000000000000e+00 
8.339017910347e+01 0.000000000000e+00 
8.350698741083e+01 0.000000000000e+00 
8.362262763536e+01 0.000000000000e+00 
8.373711145778e+01 0.000000000000e+00 
8.385045044052e+01 0.000000000000e+00 
8.396265603267e+01 0.000000000000e+00 
8.407373956965e+01 0.000000000000e+00 
8.418371227029e+01 0.000000000000e+00 
8.429258524433e+01 0.000000000000e+00 
8.440036948937e+01 0.000000000000e+00 
8.450707589057e+01 0.000000000000e+00 
8.461271522803e+01 0.000000000000e+00 
8.471729817371e+01 0.000000000000e+00 
8.482083528837e+01 0.000000000000e+00 
8.492333703161e+01 0.000000000000e+00 
8.502481375864e+01 0.000000000000e+00 
8.512527571722e+01 0.000000000000e+00 
8.522473305756e+01 0.000000000000e+00 
8.532319582646e+01 0.000000000000e+00 
8.542067396680e+01 0.000000000000e+00 
8.551717732478e+01 0.000000000000e+00 
8.561271564926e+01 0.000000000000e+00 
8.570729859108e+01 0.000000000000e+00 
8.580093570243e+01 0.000000000000e+00 
8.589363644145e+01 0.000000000000e+00 
8.598541017403e+01 0.000000000000e+00 
8.607626617050e+01 0.000000000000e+00 
8.616621360754e+01 0.000000000000e+00 
8.625526157000e+01 0.000000000000e+00 
8.634341905276e+01 0.000000000000e+00 
8.643069495992e+01 0.000000000000e+00 
8.651709810659e+01 0.000000000000e+00 
8.660263722329e+01 0.000000000000e+00 
8.668732094982e+01 0.000000000000e+00 
8.677115783708e+01 0.000000000000e+00 
8.685415635401e+01 0.000000000000e+00 
8.693632488665e+01 0.000000000000e+00 
8.701767173458e+01 0.000000000000e+00 
8.709820511530e+01 0.000000000000e+00 
8.717793316315e+01 0.000000000000e+00 
8.725686392846e+01 0.000000000000e+00 
8.733500538436e+01 0.000000000000e+00 
8.741236542578e+01 0.000000000000e+00 
8.748895186837e+01 0.000000000000e+00 
8.756477244749e+01 0.000000000000e+00 
8.763983481981e+01 0.000000000000e+00 
8.771414656747e+01 0.000000000000e+00 
8.778771519957e+01 0.000000000000e+00 
 TITLE = "Profiles along polylines"
 VARIABLES = "DIST" "HEAD" 
 ZONE T="TIME=1.797693134862e+308"
5.278771519958e+01 3.194378628374e+01 
5.321054814384e+01 3.194283573042e+01 
5.362915276098e+01 3.194189613085e+01 
5.404357133085e+01 3.194096734746e+01 
5.445384571488e+01 3.194004924449e+01 
5.486001735653e+01 3.193914168798e+01 
5.526212728195e+01 3.193824454573e+01 
5.566021610820e+01 3.193735768729e+01 
5.605432404622e+01 3.193648098396e+01 
5.644449090370e+01 3.193561430872e+01 
5.683075609056e+01 3.193475753626e+01 
5.721315862685e+01 3.193391054290e+01 
5.759173713749e+01 3.193307320663e+01 
5.796652986284e+01 3.193224540707e+01 
5.833757466098e+01 3.193142702542e+01 
5.870490901036e+01 3.193061794449e+01 
5.906857001712e+01 3.192981804863e+01 
5.942859441230e+01 3.192902722376e+01 
5.978501856441e+01 3.192824535729e+01 
6.013787847627e+01 3.192747233817e+01 
6.048720978974e+01 3.192670805680e+01 
6.083304779023e+01 3.192595240509e+01 
6.117542740867e+01 3.192520527637e+01 
6.151438323112e+01 3.192446656540e+01 
6.184994949525e+01 3.192373616836e+01 
6.218216009736e+01 3.192301398281e+01 
6.251104859384e+01 3.192229990770e+01 
6.283664820550e+01 3.192159384333e+01 
6.315899182148e+01 3.192089569134e+01 
6.347811200083e+01 3.192020535469e+01 
6.379404097895e+01 3.191952273765e+01 
6.410681066630e+01 3.191884774576e+01 
6.441645265749e+01 3.191818028584e+01 
6.472299822971e+01 3.191752026597e+01 
6.502647834391e+01 3.191686759545e+01 
6.532692365628e+01 3.191622218483e+01 
6.562436451650e+01 3.191558394581e+01 
6.591883096868e+01 3.191495279133e+01 
6.621035275746e+01 3.191432863546e+01 
6.649895932872e+01 3.191371139345e+01 
6.678467983296e+01 3.191310098168e+01 
6.706754313119e+01 3.191249731766e+01 
6.734757779547e+01 3.191190031998e+01 
6.762481211210e+01 3.191130990837e+01 
6.789927408732e+01 3.191072600359e+01 
6.817099144505e+01 3.191014852747e+01 
6.843999162996e+01 3.190957740292e+01 
6.870630181300e+01 3.190901255384e+01 
6.896994889161e+01 3.190845390520e+01 
6.923095949786e+01 3.190790138291e+01 
6.948935999844e+01 3.190735491392e+01 
6.974517649488e+01 3.190681442612e+01 
6.999843482607e+01 3.190627984839e+01 
7.024916057366e+01 3.190575111054e+01 
7.049737906442e+01 3.190522814332e+01 
7.074311537026e+01 3.190471087839e+01 
7.098639431319e+01 3.190419924834e+01 
7.122724046780e+01 3.190369318664e+01 
7.146567816089e+01 3.190319262763e+01 
7.170173147649e+01 3.190269750654e+01 
7.193542425804e+01 3.190220775946e+01 
7.216678011061e+01 3.190172332330e+01 
7.239582240564e+01 3.190124413581e+01 
7.262257427779e+01 3.190077013557e+01 
7.284705863230e+01 3.190030126196e+01 
7.306929814430e+01 3.189983745514e+01 
7.328931526082e+01 3.189937865610e+01 
7.350713220532e+01 3.189892480655e+01 
7.372277097957e+01 3.189847584899e+01 
7.393625336543e+01 3.189803172667e+01 
7.414760092666e+01 3.189759238358e+01 
7.435683501326e+01 3.189715776441e+01 
7.456397676054e+01 3.189672781461e+01 
7.476904709077e+01 3.189630248031e+01 
7.497206671746e+01 3.189588170835e+01 
7.517305614685e+01 3.189546544624e+01 
7.537203568212e+01 3.189505364220e+01 
7.556902542215e+01 3.189464624508e+01 
7.576404526567e+01 3.189424320440e+01 
7.595711491265e+01 3.189384447033e+01 
7.614825386307e+01 3.189344999368e+01 
7.633748142325e+01 3.189305972589e+01 
7.652481670750e+01 3.189267361902e+01 
7.671027863910e+01 3.189229162573e+01 
7.689388595157e+01 3.189191369929e+01 
7.707565718984e+01 3.189153979355e+01 
7.725561071402e+01 3.189116986298e+01 
7.743376470308e+01 3.189080386258e+01 
7.761013715324e+01 3.189044174794e+01 
7.778474587905e+01 3.189008347520e+01 
7.795760851697e+01 3.188972900108e+01 
7.812874252893e+01 3.188937828280e+01 
7.829816520059e+01 3.188903127814e+01 
7.846589364492e+01 3.188868794540e+01 
7.863194480554e+01 3.188834824342e+01 
7.879633545496e+01 3.188801213151e+01 
7.895908219799e+01 3.188767956953e+01 
7.912020147242e+01 3.188735051781e+01 
7.927970955504e+01 3.188702493717e+01 
7.943762255693e+01 3.188670278894e+01 
7.959395642690e+01 3.188638403490e+01 
7.974872695981e+01 3.188606863730e+01 
7.990194978928e+01 3.188575655887e+01 
8.005364039093e+01 3.188544776278e+01 
8.020381408545e+01 3.188514221268e+01 
8.035248604177e+01 3.188483987262e+01 
8.049967127739e+01 3.188454070713e+01 
8.064538466150e+01 3.188424468113e+01 
8.078964091268e+01 3.188395176000e+01 
8.093245459929e+01 3.188366190952e+01 
8.107384015032e+01 3.188337509590e+01 
8.121381184766e+01 3.188309128573e+01 
8.135238382658e+01 3.188281044603e+01 
8.148957008631e+01 3.188253254420e+01 
8.162538448501e+01 3.188225754805e+01 
8.175984073739e+01 3.188198542575e+01 
8.189295242535e+01 3.188171614588e+01 
8.202473299801e+01 3.188144967735e+01 
8.215519576661e+01 3.188118598949e+01 
8.228435390721e+01 3.188092505197e+01 
8.241222046600e+01 3.188066683482e+01 
8.253880835926e+01 3.188041130842e+01 
8.266413037340e+01 3.188015844352e+01 
8.278819916749e+01 3.187990821120e+01 
8.291102727323e+01 3.187966058288e+01 
8.303262709749e+01 3.187941553033e+01 
8.315301092479e+01 3.187917302563e+01 
8.327219091452e+01 3.187893304120e+01 
8.339017910347e+01 3.187869554979e+01 
8.350698741083e+01 3.187846052446e+01 
8.362262763536e+01 3.187822793858e+01 
8.373711145778e+01 3.187799776583e+01 
8.385045044052e+01 3.187776998021e+01 
8.396265603267e+01 3.187754455602e+01 
8.407373956965e+01 3.187732146783e+01 
8.418371227029e+01 3.187710069055e+01 
8.429258524433e+01 3.187688219933e+01 
8.440036948937e+01 3.187666596964e+01 
8.450707589057e+01 3.187645197723e+01 
8.461271522803e+01 3.187624019811e+01 
8.471729817371e+01 3.187603060859e+01 
8.482083528837e+01 3.187582318523e+01 
8.492333703161e+01 3.187561790488e+01 
8.502481375864e+01 3.187541474464e+01 
8.512527571722e+01 3.187521368186e+01 
8.522473305756e+01 3.187501469418e+01 
8.532319582646e+01 3.187481775946e+01 
8.542067396680e+01 3.187462285584e+01 
8.551717732478e+01 3.187442996170e+01 
8.561271564926e+01 3.187423905566e+01 
8.570729859108e+01 3.187405011657e+01 
8.580093570243e+01 3.187386312354e+01 
8.589363644145e+01 3.187367805592e+01 
8.598541017403e+01 3.187349489327e+01 
8.607626617050e+01 3.187331361539e+01 
8.616621360754e+01 3.187313420231e+01 
8.625526157000e+01 3.187295663428e+01 
8.634341905276e+01 3.187278089179e+01 
8.643069495992e+01 3.187260695551e+01 
8.651709810659e+01 3.187243480637e+01 
8.660263722329e+01 3.187226442548e+01 
8.668732094982e+01 3.187209579417e+01 
8.677115783708e+01 3.187192889400e+01 
8.685415635401e+01 3.187176370669e+01 
8.693632488665e+01 3.187160021421e+01 
8.701767173458e+01 3.187143839870e+01 
8.709820511530e+01 3.187127824250e+01 
8.717793316315e+01 3.187111972817e+01 
8.725686392846e+01 3.187096283844e+01 
8.733500538436e+01 3.187080755624e+01 
8.741236542578e+01 3.187065386469e+01 
8.748895186837e+01 3.187050174707e+01 
8.756477244749e+01 3.187035118689e+01 
8.763983481981e+01 3.187020216781e+01 
8.771414656747e+01 3.187005467368e+01 
8.778771519957e+01 3.186990868852e+01 
