 TITLE = "Profiles along polylines"
 VARIABLES = "DIST" "HEAD" 
 ZONE T="TIME=0.000000000000e+00"
2.282219128147e+01 0.000000000000e+00 
2.308252306458e+01 0.000000000000e+00 
2.324502422574e+01 0.000000000000e+00 
2.350535600885e+01 0.000000000000e+00 
2.366362884288e+01 0.000000000000e+00 
2.392396062599e+01 0.000000000000e+00 
2.407804741275e+01 0.000000000000e+00 
2.433837919586e+01 0.000000000000e+00 
2.448832179677e+01 0.000000000000e+00 
2.474865357988e+01 0.000000000000e+00 
2.489449343842e+01 0.000000000000e+00 
2.515482522154e+01 0.000000000000e+00 
2.529660336384e+01 0.000000000000e+00 
2.555693514696e+01 0.000000000000e+00 
2.569469219009e+01 0.000000000000e+00 
2.595502397321e+01 0.000000000000e+00 
2.608880012811e+01 0.000000000000e+00 
2.634913191122e+01 0.000000000000e+00 
2.647896698559e+01 0.000000000000e+00 
2.673929876870e+01 0.000000000000e+00 
2.686523217245e+01 0.000000000000e+00 
2.712556395556e+01 0.000000000000e+00 
2.724763470874e+01 0.000000000000e+00 
2.750796649186e+01 0.000000000000e+00 
2.762621321938e+01 0.000000000000e+00 
2.788654500250e+01 0.000000000000e+00 
2.800100594473e+01 0.000000000000e+00 
2.826133772784e+01 0.000000000000e+00 
2.837205074287e+01 0.000000000000e+00 
2.863238252599e+01 0.000000000000e+00 
2.873938509224e+01 0.000000000000e+00 
2.899971687536e+01 0.000000000000e+00 
2.910304609901e+01 0.000000000000e+00 
2.936337788212e+01 0.000000000000e+00 
2.946307049418e+01 0.000000000000e+00 
2.972340227730e+01 0.000000000000e+00 
2.981949464630e+01 0.000000000000e+00 
3.007982642941e+01 0.000000000000e+00 
3.017235455816e+01 0.000000000000e+00 
3.043268634127e+01 0.000000000000e+00 
3.052168587163e+01 0.000000000000e+00 
3.078201765475e+01 0.000000000000e+00 
3.086752387212e+01 0.000000000000e+00 
3.112785565524e+01 0.000000000000e+00 
3.120990349056e+01 0.000000000000e+00 
3.147023527367e+01 0.000000000000e+00 
3.154885931300e+01 0.000000000000e+00 
3.180919109612e+01 0.000000000000e+00 
3.188442557714e+01 0.000000000000e+00 
3.214475736025e+01 0.000000000000e+00 
3.221663617924e+01 0.000000000000e+00 
3.247696796236e+01 0.000000000000e+00 
3.254552467573e+01 0.000000000000e+00 
3.280585645884e+01 0.000000000000e+00 
3.287112428738e+01 0.000000000000e+00 
3.313145607050e+01 0.000000000000e+00 
3.319346790337e+01 0.000000000000e+00 
3.345379968648e+01 0.000000000000e+00 
3.351258808272e+01 0.000000000000e+00 
3.377291986583e+01 0.000000000000e+00 
3.382851706084e+01 0.000000000000e+00 
3.408884884395e+01 0.000000000000e+00 
3.414128674819e+01 0.000000000000e+00 
3.440161853130e+01 0.000000000000e+00 
3.445092873938e+01 0.000000000000e+00 
3.471126052249e+01 0.000000000000e+00 
3.475747431159e+01 0.000000000000e+00 
3.501780609471e+01 0.000000000000e+00 
3.506095442580e+01 0.000000000000e+00 
3.532128620891e+01 0.000000000000e+00 
3.536139973816e+01 0.000000000000e+00 
3.562173152128e+01 0.000000000000e+00 
3.565884059838e+01 0.000000000000e+00 
3.591917238149e+01 0.000000000000e+00 
3.595330705056e+01 0.000000000000e+00 
3.621363883368e+01 0.000000000000e+00 
3.624482883934e+01 0.000000000000e+00 
3.650516062246e+01 0.000000000000e+00 
3.653343541060e+01 0.000000000000e+00 
3.679376719371e+01 0.000000000000e+00 
3.681915591484e+01 0.000000000000e+00 
3.707948769796e+01 0.000000000000e+00 
3.710201921307e+01 0.000000000000e+00 
3.736235099619e+01 0.000000000000e+00 
3.738205387735e+01 0.000000000000e+00 
3.764238566046e+01 0.000000000000e+00 
3.765928819398e+01 0.000000000000e+00 
3.791961997710e+01 0.000000000000e+00 
3.793375016920e+01 0.000000000000e+00 
3.819408195231e+01 0.000000000000e+00 
3.820546752693e+01 0.000000000000e+00 
3.846579931004e+01 0.000000000000e+00 
3.847446771184e+01 0.000000000000e+00 
3.873479949496e+01 0.000000000000e+00 
3.874077789488e+01 0.000000000000e+00 
3.900110967799e+01 0.000000000000e+00 
3.900442497348e+01 0.000000000000e+00 
3.926475675660e+01 0.000000000000e+00 
3.926543557974e+01 0.000000000000e+00 
3.952383608032e+01 0.000000000000e+00 
3.952576736285e+01 0.000000000000e+00 
3.977965257675e+01 0.000000000000e+00 
3.978416786344e+01 0.000000000000e+00 
4.003291090795e+01 0.000000000000e+00 
4.003998435987e+01 0.000000000000e+00 
4.028363665554e+01 0.000000000000e+00 
4.029324269107e+01 0.000000000000e+00 
4.053185514630e+01 0.000000000000e+00 
4.054396843865e+01 0.000000000000e+00 
4.077759145214e+01 0.000000000000e+00 
4.079218692942e+01 0.000000000000e+00 
4.102087039507e+01 0.000000000000e+00 
4.103792323526e+01 0.000000000000e+00 
4.126171654968e+01 0.000000000000e+00 
4.128120217819e+01 0.000000000000e+00 
4.150015424277e+01 0.000000000000e+00 
4.152204833279e+01 0.000000000000e+00 
4.173620755837e+01 0.000000000000e+00 
4.176048602588e+01 0.000000000000e+00 
4.196990033992e+01 0.000000000000e+00 
4.199653934149e+01 0.000000000000e+00 
4.220125619249e+01 0.000000000000e+00 
4.223023212304e+01 0.000000000000e+00 
4.243029848752e+01 0.000000000000e+00 
4.246158797561e+01 0.000000000000e+00 
4.265705035967e+01 0.000000000000e+00 
4.269063027063e+01 0.000000000000e+00 
4.288153471418e+01 0.000000000000e+00 
4.291738214279e+01 0.000000000000e+00 
4.310377422618e+01 0.000000000000e+00 
4.314186649730e+01 0.000000000000e+00 
4.332379134270e+01 0.000000000000e+00 
4.336410600930e+01 0.000000000000e+00 
4.354160828721e+01 0.000000000000e+00 
4.358412312582e+01 0.000000000000e+00 
4.375724706146e+01 0.000000000000e+00 
4.380194007032e+01 0.000000000000e+00 
4.397072944731e+01 0.000000000000e+00 
4.401757884457e+01 0.000000000000e+00 
4.418207700854e+01 0.000000000000e+00 
4.423106123043e+01 0.000000000000e+00 
4.439131109514e+01 0.000000000000e+00 
4.444240879165e+01 0.000000000000e+00 
4.459845284242e+01 0.000000000000e+00 
4.465164287826e+01 0.000000000000e+00 
4.480352317266e+01 0.000000000000e+00 
4.485878462553e+01 0.000000000000e+00 
4.500654279935e+01 0.000000000000e+00 
4.506385495577e+01 0.000000000000e+00 
4.520753222874e+01 0.000000000000e+00 
4.526687458246e+01 0.000000000000e+00 
4.540651176400e+01 0.000000000000e+00 
4.546786401185e+01 0.000000000000e+00 
4.560350150403e+01 0.000000000000e+00 
4.566684354712e+01 0.000000000000e+00 
4.579852134756e+01 0.000000000000e+00 
4.586383328715e+01 0.000000000000e+00 
4.599159099453e+01 0.000000000000e+00 
4.605885313067e+01 0.000000000000e+00 
4.618272994496e+01 0.000000000000e+00 
4.625192277765e+01 0.000000000000e+00 
4.637195750514e+01 0.000000000000e+00 
4.644306172807e+01 0.000000000000e+00 
4.655929278939e+01 0.000000000000e+00 
4.663228928825e+01 0.000000000000e+00 
4.674475472098e+01 0.000000000000e+00 
4.681962457250e+01 0.000000000000e+00 
4.692836203345e+01 0.000000000000e+00 
4.700508650410e+01 0.000000000000e+00 
4.711013327172e+01 0.000000000000e+00 
4.718869381657e+01 0.000000000000e+00 
4.729008679591e+01 0.000000000000e+00 
4.737046505484e+01 0.000000000000e+00 
4.746824078497e+01 0.000000000000e+00 
4.755041857903e+01 0.000000000000e+00 
4.764461323513e+01 0.000000000000e+00 
4.772857256808e+01 0.000000000000e+00 
4.781922196094e+01 0.000000000000e+00 
4.790494501825e+01 0.000000000000e+00 
4.799208459885e+01 0.000000000000e+00 
4.807955374405e+01 0.000000000000e+00 
4.816321861081e+01 0.000000000000e+00 
4.825241638197e+01 0.000000000000e+00 
4.833264128248e+01 0.000000000000e+00 
4.842355039393e+01 0.000000000000e+00 
4.850036972681e+01 0.000000000000e+00 
4.859297306560e+01 0.000000000000e+00 
4.866642088743e+01 0.000000000000e+00 
4.876070150992e+01 0.000000000000e+00 
4.883081153685e+01 0.000000000000e+00 
4.892675267054e+01 0.000000000000e+00 
4.899355827987e+01 0.000000000000e+00 
4.909114331997e+01 0.000000000000e+00 
4.915467755431e+01 0.000000000000e+00 
4.925389006299e+01 0.000000000000e+00 
4.931418563692e+01 0.000000000000e+00 
4.941500933742e+01 0.000000000000e+00 
4.947209863882e+01 0.000000000000e+00 
4.957451742004e+01 0.000000000000e+00 
4.962843250879e+01 0.000000000000e+00 
4.973243042193e+01 0.000000000000e+00 
4.978320304170e+01 0.000000000000e+00 
4.988876429191e+01 0.000000000000e+00 
4.993642587117e+01 0.000000000000e+00 
5.004353482481e+01 0.000000000000e+00 
5.008811647282e+01 0.000000000000e+00 
5.019675765429e+01 0.000000000000e+00 
5.023829016734e+01 0.000000000000e+00 
5.034844825593e+01 0.000000000000e+00 
5.038696212365e+01 0.000000000000e+00 
5.049862195046e+01 0.000000000000e+00 
5.053414735927e+01 0.000000000000e+00 
5.064729390677e+01 0.000000000000e+00 
5.067986074339e+01 0.000000000000e+00 
5.079447914239e+01 0.000000000000e+00 
5.082411699456e+01 0.000000000000e+00 
5.094019252651e+01 0.000000000000e+00 
5.096693068118e+01 0.000000000000e+00 
5.108444877768e+01 0.000000000000e+00 
5.110831623220e+01 0.000000000000e+00 
5.122726246429e+01 0.000000000000e+00 
5.124828792955e+01 0.000000000000e+00 
5.136864801532e+01 0.000000000000e+00 
5.138685990847e+01 0.000000000000e+00 
5.150861971267e+01 0.000000000000e+00 
5.152404616820e+01 0.000000000000e+00 
5.164719169158e+01 0.000000000000e+00 
5.165986056690e+01 0.000000000000e+00 
5.178437795132e+01 0.000000000000e+00 
5.179431681928e+01 0.000000000000e+00 
5.192019235002e+01 0.000000000000e+00 
5.192742850724e+01 0.000000000000e+00 
5.205464860240e+01 0.000000000000e+00 
5.205920907990e+01 0.000000000000e+00 
5.218776029036e+01 0.000000000000e+00 
5.218967184850e+01 0.000000000000e+00 
5.231882998910e+01 0.000000000000e+00 
5.231954086302e+01 0.000000000000e+00 
5.244669654789e+01 0.000000000000e+00 
5.245000363162e+01 0.000000000000e+00 
5.257328444115e+01 0.000000000000e+00 
5.257916177221e+01 0.000000000000e+00 
5.269860645529e+01 0.000000000000e+00 
5.270702833100e+01 0.000000000000e+00 
5.282267524938e+01 0.000000000000e+00 
5.283361622427e+01 0.000000000000e+00 
5.294550335512e+01 0.000000000000e+00 
5.295893823840e+01 0.000000000000e+00 
5.306710317938e+01 0.000000000000e+00 
5.308300703249e+01 0.000000000000e+00 
5.318748700668e+01 0.000000000000e+00 
5.320583513824e+01 0.000000000000e+00 
5.330666699641e+01 0.000000000000e+00 
5.332743496250e+01 0.000000000000e+00 
5.342465518536e+01 0.000000000000e+00 
5.344781878980e+01 0.000000000000e+00 
5.354146349273e+01 0.000000000000e+00 
5.356699877953e+01 0.000000000000e+00 
5.365710371725e+01 0.000000000000e+00 
5.368498696848e+01 0.000000000000e+00 
5.377158753968e+01 0.000000000000e+00 
5.380179527584e+01 0.000000000000e+00 
5.388492652241e+01 0.000000000000e+00 
5.391743550037e+01 0.000000000000e+00 
5.399713211456e+01 0.000000000000e+00 
5.403191932279e+01 0.000000000000e+00 
5.410821565154e+01 0.000000000000e+00 
5.414525830552e+01 0.000000000000e+00 
5.421818835218e+01 0.000000000000e+00 
5.425746389768e+01 0.000000000000e+00 
5.432706132622e+01 0.000000000000e+00 
5.436854743466e+01 0.000000000000e+00 
5.443484557126e+01 0.000000000000e+00 
5.447852013530e+01 0.000000000000e+00 
5.454155197246e+01 0.000000000000e+00 
5.458739310933e+01 0.000000000000e+00 
5.464719130992e+01 0.000000000000e+00 
5.469517735438e+01 0.000000000000e+00 
5.475177425560e+01 0.000000000000e+00 
5.480188375557e+01 0.000000000000e+00 
5.485531137026e+01 0.000000000000e+00 
5.490752309304e+01 0.000000000000e+00 
5.495781311350e+01 0.000000000000e+00 
5.501210603872e+01 0.000000000000e+00 
5.505928984053e+01 0.000000000000e+00 
5.511564315337e+01 0.000000000000e+00 
5.515975179911e+01 0.000000000000e+00 
5.521814489662e+01 0.000000000000e+00 
5.525920913945e+01 0.000000000000e+00 
5.531962162365e+01 0.000000000000e+00 
5.535767190835e+01 0.000000000000e+00 
5.542008358222e+01 0.000000000000e+00 
5.545515004869e+01 0.000000000000e+00 
5.551954092257e+01 0.000000000000e+00 
5.555165340668e+01 0.000000000000e+00 
5.561800369146e+01 0.000000000000e+00 
5.564719173115e+01 0.000000000000e+00 
5.571548183181e+01 0.000000000000e+00 
5.574177467297e+01 0.000000000000e+00 
5.581198518979e+01 0.000000000000e+00 
5.583541178433e+01 0.000000000000e+00 
5.590752351427e+01 0.000000000000e+00 
5.592811252335e+01 0.000000000000e+00 
5.600210645608e+01 0.000000000000e+00 
5.601988625592e+01 0.000000000000e+00 
5.609574356744e+01 0.000000000000e+00 
5.611074225239e+01 0.000000000000e+00 
5.618844430646e+01 0.000000000000e+00 
5.620068968943e+01 0.000000000000e+00 
5.628021803904e+01 0.000000000000e+00 
5.628973765189e+01 0.000000000000e+00 
5.637107403551e+01 0.000000000000e+00 
5.637789513466e+01 0.000000000000e+00 
5.646102147255e+01 0.000000000000e+00 
5.646517104181e+01 0.000000000000e+00 
5.655006943500e+01 0.000000000000e+00 
5.655157418848e+01 0.000000000000e+00 
5.663711330519e+01 0.000000000000e+00 
5.663822691777e+01 0.000000000000e+00 
5.672179703172e+01 0.000000000000e+00 
5.672550282493e+01 0.000000000000e+00 
5.680563391897e+01 0.000000000000e+00 
5.681190597160e+01 0.000000000000e+00 
5.688863243590e+01 0.000000000000e+00 
5.689744508830e+01 0.000000000000e+00 
5.697080096854e+01 0.000000000000e+00 
5.698212881483e+01 0.000000000000e+00 
5.705214781648e+01 0.000000000000e+00 
5.706596570209e+01 0.000000000000e+00 
5.713268119719e+01 0.000000000000e+00 
5.714896421902e+01 0.000000000000e+00 
5.721240924504e+01 0.000000000000e+00 
5.723113275166e+01 0.000000000000e+00 
5.729134001035e+01 0.000000000000e+00 
5.731247959959e+01 0.000000000000e+00 
5.736948146626e+01 0.000000000000e+00 
5.739301298031e+01 0.000000000000e+00 
5.744684150768e+01 0.000000000000e+00 
5.747274102816e+01 0.000000000000e+00 
5.752342795027e+01 0.000000000000e+00 
5.755167179346e+01 0.000000000000e+00 
5.759924852938e+01 0.000000000000e+00 
5.762981324937e+01 0.000000000000e+00 
5.767431090170e+01 0.000000000000e+00 
5.770717329079e+01 0.000000000000e+00 
5.774862264936e+01 0.000000000000e+00 
5.778375973338e+01 0.000000000000e+00 
5.782219128147e+01 0.000000000000e+00 
5.785958031250e+01 0.000000000000e+00 
5.793464268482e+01 0.000000000000e+00 
5.800895443248e+01 0.000000000000e+00 
5.808252306458e+01 0.000000000000e+00 
 TITLE = "Profiles along polylines"
 VARIABLES = "DIST" "HEAD" 
 ZONE T="TIME=1.797693134862e+308"
2.282219128147e+01 3.300187437243e+01 
2.308252306458e+01 3.298880304662e+01 
2.324502422574e+01 3.300153917849e+01 
2.350535600885e+01 3.298846690321e+01 
2.366362884288e+01 3.300120882531e+01 
2.392396062599e+01 3.298813560961e+01 
2.407804741275e+01 3.300088323484e+01 
2.433837919586e+01 3.298780908768e+01 
2.448832179677e+01 3.300056233040e+01 
2.474865357988e+01 3.298748726065e+01 
2.489449343842e+01 3.300024603663e+01 
2.515482522154e+01 3.298717005311e+01 
2.529660336384e+01 3.299993427950e+01 
2.555693514696e+01 3.298685739095e+01 
2.569469219009e+01 3.299962698628e+01 
2.595502397321e+01 3.298654920137e+01 
2.608880012811e+01 3.299932408550e+01 
2.634913191122e+01 3.298624541282e+01 
2.647896698559e+01 3.299902550695e+01 
2.673929876870e+01 3.298594595502e+01 
2.686523217245e+01 3.299873118164e+01 
2.712556395556e+01 3.298565075891e+01 
2.724763470874e+01 3.299844104177e+01 
2.750796649186e+01 3.298535975662e+01 
2.762621321938e+01 3.299815502075e+01 
2.788654500250e+01 3.298507288149e+01 
2.800100594473e+01 3.299787305311e+01 
2.826133772784e+01 3.298479006798e+01 
2.837205074287e+01 3.299759507455e+01 
2.863238252599e+01 3.298451125172e+01 
2.873938509224e+01 3.299732102187e+01 
2.899971687536e+01 3.298423636945e+01 
2.910304609901e+01 3.299705083297e+01 
2.936337788212e+01 3.298396535899e+01 
2.946307049418e+01 3.299678444683e+01 
2.972340227730e+01 3.298369815925e+01 
2.981949464630e+01 3.299652180347e+01 
3.007982642941e+01 3.298343471020e+01 
3.017235455816e+01 3.299626284397e+01 
3.043268634127e+01 3.298317495284e+01 
3.052168587163e+01 3.299600751041e+01 
3.078201765475e+01 3.298291882919e+01 
3.086752387212e+01 3.299575574588e+01 
3.112785565524e+01 3.298266628227e+01 
3.120990349056e+01 3.299550749444e+01 
3.147023527367e+01 3.298241725608e+01 
3.154885931300e+01 3.299526270112e+01 
3.180919109612e+01 3.298217169558e+01 
3.188442557714e+01 3.299502131190e+01 
3.214475736025e+01 3.298192954668e+01 
3.221663617924e+01 3.299478327367e+01 
3.247696796236e+01 3.298169075621e+01 
3.254552467573e+01 3.299454853425e+01 
3.280585645884e+01 3.298145527193e+01 
3.287112428738e+01 3.299431704234e+01 
3.313145607050e+01 3.298122304248e+01 
3.319346790337e+01 3.299408874753e+01 
3.345379968648e+01 3.298099401737e+01 
3.351258808272e+01 3.299386360027e+01 
3.377291986583e+01 3.298076814700e+01 
3.382851706084e+01 3.299364155185e+01 
3.408884884395e+01 3.298054538258e+01 
3.414128674819e+01 3.299342255438e+01 
3.440161853130e+01 3.298032567619e+01 
3.445092873938e+01 3.299320656082e+01 
3.471126052249e+01 3.298010898069e+01 
3.475747431159e+01 3.299299352489e+01 
3.501780609471e+01 3.297989524976e+01 
3.506095442580e+01 3.299278340113e+01 
3.532128620891e+01 3.297968443787e+01 
3.536139973816e+01 3.299257614483e+01 
3.562173152128e+01 3.297947650026e+01 
3.565884059838e+01 3.299237171204e+01 
3.591917238149e+01 3.297927139291e+01 
3.595330705056e+01 3.299217005957e+01 
3.621363883368e+01 3.297906907257e+01 
3.624482883934e+01 3.299197114494e+01 
3.650516062246e+01 3.297886949670e+01 
3.653343541060e+01 3.299177492640e+01 
3.679376719371e+01 3.297867262349e+01 
3.681915591484e+01 3.299158136290e+01 
3.707948769796e+01 3.297847841183e+01 
3.710201921307e+01 3.299139041409e+01 
3.736235099619e+01 3.297828682131e+01 
3.738205387735e+01 3.299120204029e+01 
3.764238566046e+01 3.297809781218e+01 
3.765928819398e+01 3.299101620248e+01 
3.791961997710e+01 3.297791134539e+01 
3.793375016920e+01 3.299083286231e+01 
3.819408195231e+01 3.297772738250e+01 
3.820546752693e+01 3.299065198205e+01 
3.846579931004e+01 3.297754588575e+01 
3.847446771184e+01 3.299047352464e+01 
3.873479949496e+01 3.297736681800e+01 
3.874077789488e+01 3.299029745360e+01 
3.900110967799e+01 3.297719014272e+01 
3.900442497348e+01 3.299012373309e+01 
3.926475675660e+01 3.297701582402e+01 
3.926543557974e+01 3.298995232784e+01 
3.952383608032e+01 3.298978320319e+01 
3.952576736285e+01 3.297684382656e+01 
3.977965257675e+01 3.298961632504e+01 
3.978416786344e+01 3.297667411563e+01 
4.003291090795e+01 3.298945165986e+01 
4.003998435987e+01 3.297650665708e+01 
4.028363665554e+01 3.298928917469e+01 
4.029324269107e+01 3.297634141732e+01 
4.053185514630e+01 3.298912883709e+01 
4.054396843865e+01 3.297617836333e+01 
4.077759145214e+01 3.298897061518e+01 
4.079218692942e+01 3.297601746263e+01 
4.102087039507e+01 3.298881447760e+01 
4.103792323526e+01 3.297585868327e+01 
4.126171654968e+01 3.298866039349e+01 
4.128120217819e+01 3.297570199383e+01 
4.150015424277e+01 3.298850833253e+01 
4.152204833279e+01 3.297554736343e+01 
4.173620755837e+01 3.298835826488e+01 
4.176048602588e+01 3.297539476165e+01 
4.196990033992e+01 3.298821016117e+01 
4.199653934149e+01 3.297524415863e+01 
4.220125619249e+01 3.298806399256e+01 
4.223023212304e+01 3.297509552494e+01 
4.243029848752e+01 3.298791973064e+01 
4.246158797561e+01 3.297494883168e+01 
4.265705035967e+01 3.298777734748e+01 
4.269063027063e+01 3.297480405040e+01 
4.288153471418e+01 3.298763681561e+01 
4.291738214279e+01 3.297466115312e+01 
4.310377422618e+01 3.298749810799e+01 
4.314186649730e+01 3.297452011230e+01 
4.332379134270e+01 3.298736119806e+01 
4.336410600930e+01 3.297438090087e+01 
4.354160828721e+01 3.298722605964e+01 
4.358412312582e+01 3.297424349220e+01 
4.375724706146e+01 3.298709266702e+01 
4.380194007032e+01 3.297410786009e+01 
4.397072944731e+01 3.298696099487e+01 
4.401757884457e+01 3.297397397874e+01 
4.418207700854e+01 3.298683101830e+01 
4.423106123043e+01 3.297384182281e+01 
4.439131109514e+01 3.298670271280e+01 
4.444240879165e+01 3.297371136734e+01 
4.459845284242e+01 3.298657605428e+01 
4.465164287826e+01 3.297358258778e+01 
4.480352317266e+01 3.298645101900e+01 
4.485878462553e+01 3.297345545998e+01 
4.500654279935e+01 3.298632758365e+01 
4.506385495577e+01 3.297332996017e+01 
4.520753222874e+01 3.298620572525e+01 
4.526687458246e+01 3.297320606498e+01 
4.540651176400e+01 3.298608542122e+01 
4.546786401185e+01 3.297308375139e+01 
4.560350150403e+01 3.298596664933e+01 
4.566684354712e+01 3.297296299677e+01 
4.579852134756e+01 3.298584938770e+01 
4.586383328715e+01 3.297284377885e+01 
4.599159099453e+01 3.298573361480e+01 
4.605885313067e+01 3.297272607569e+01 
4.618272994496e+01 3.298561930946e+01 
4.625192277765e+01 3.297260986574e+01 
4.637195750514e+01 3.298550645084e+01 
4.644306172807e+01 3.297249512777e+01 
4.655929278939e+01 3.298539501841e+01 
4.663228928825e+01 3.297238184088e+01 
4.674475472098e+01 3.298528499200e+01 
4.681962457250e+01 3.297226998453e+01 
4.692836203345e+01 3.298517635173e+01 
4.700508650410e+01 3.297215953848e+01 
4.711013327172e+01 3.298506907805e+01 
4.718869381657e+01 3.297205048282e+01 
4.729008679591e+01 3.298496315171e+01 
4.737046505484e+01 3.297194279796e+01 
4.746824078497e+01 3.298485855379e+01 
4.755041857903e+01 3.297183646460e+01 
4.764461323513e+01 3.298475526563e+01 
4.772857256808e+01 3.297173146377e+01 
4.781922196094e+01 3.298465326888e+01 
4.790494501825e+01 3.297162777678e+01 
4.799208459885e+01 3.298455254549e+01 
4.807955374405e+01 3.297152538525e+01 
4.816321861081e+01 3.298445307767e+01 
4.825241638197e+01 3.297142427107e+01 
4.833264128248e+01 3.298435484793e+01 
4.842355039393e+01 3.297132441642e+01 
4.850036972681e+01 3.298425783905e+01 
4.859297306560e+01 3.297122580376e+01 
4.866642088743e+01 3.298416203405e+01 
4.876070150992e+01 3.297112841583e+01 
4.883081153685e+01 3.298406741626e+01 
4.892675267054e+01 3.297103223563e+01 
4.899355827987e+01 3.298397396923e+01 
4.909114331997e+01 3.297093724643e+01 
4.915467755431e+01 3.298388167679e+01 
4.925389006299e+01 3.297084343176e+01 
4.931418563692e+01 3.298379052302e+01 
4.941500933742e+01 3.297075077540e+01 
4.947209863882e+01 3.298370049222e+01 
4.957451742004e+01 3.297065926139e+01 
4.962843250879e+01 3.298361156897e+01 
4.973243042193e+01 3.297056887400e+01 
4.978320304170e+01 3.298352373805e+01 
4.988876429191e+01 3.297047959777e+01 
4.993642587117e+01 3.298343698452e+01 
5.004353482481e+01 3.297039141745e+01 
5.008811647282e+01 3.298335129362e+01 
5.019675765429e+01 3.297030431805e+01 
5.023829016734e+01 3.298326665085e+01 
5.034844825593e+01 3.297021828478e+01 
5.038696212365e+01 3.298318304192e+01 
5.049862195046e+01 3.297013330312e+01 
5.053414735927e+01 3.298310045277e+01 
5.064729390677e+01 3.297004935872e+01 
5.067986074339e+01 3.298301886954e+01 
5.079447914239e+01 3.296996643750e+01 
5.082411699456e+01 3.298293827859e+01 
5.094019252651e+01 3.296988452555e+01 
5.096693068118e+01 3.298285866648e+01 
5.108444877768e+01 3.296980360922e+01 
5.110831623220e+01 3.298278001998e+01 
5.122726246429e+01 3.296972367502e+01 
5.124828792955e+01 3.298270232607e+01 
5.136864801532e+01 3.296964470969e+01 
5.138685990847e+01 3.298262557190e+01 
5.150861971267e+01 3.296956670017e+01 
5.152404616820e+01 3.298254974485e+01 
5.164719169158e+01 3.296948963360e+01 
5.165986056690e+01 3.298247483247e+01 
5.178437795132e+01 3.296941349730e+01 
5.179431681928e+01 3.298240082250e+01 
5.192019235002e+01 3.296933827879e+01 
5.192742850724e+01 3.298232770285e+01 
5.205464860240e+01 3.296926396580e+01 
5.205920907990e+01 3.298225546165e+01 
5.218776029036e+01 3.296919054620e+01 
5.218967184850e+01 3.298218408717e+01 
5.231882998910e+01 3.298211356788e+01 
5.231954086302e+01 3.296911800808e+01 
5.244669654789e+01 3.298204389241e+01 
5.245000363162e+01 3.296904633968e+01 
5.257328444115e+01 3.298197504955e+01 
5.257916177221e+01 3.296897552944e+01 
5.269860645529e+01 3.298190702829e+01 
5.270702833100e+01 3.296890556597e+01 
5.282267524938e+01 3.298183981776e+01 
5.283361622427e+01 3.296883643803e+01 
5.294550335512e+01 3.298177340725e+01 
5.295893823840e+01 3.296876813456e+01 
5.306710317938e+01 3.298170778621e+01 
5.308300703249e+01 3.296870064467e+01 
5.318748700668e+01 3.298164294426e+01 
5.320583513824e+01 3.296863395763e+01 
5.330666699641e+01 3.298157887115e+01 
5.332743496250e+01 3.296856806286e+01 
5.342465518536e+01 3.298151555682e+01 
5.344781878980e+01 3.296850294995e+01 
5.354146349273e+01 3.298145299131e+01 
5.356699877953e+01 3.296843860862e+01 
5.365710371725e+01 3.298139116483e+01 
5.368498696848e+01 3.296837502877e+01 
5.377158753968e+01 3.298133006775e+01 
5.380179527584e+01 3.296831220043e+01 
5.388492652241e+01 3.298126969056e+01 
5.391743550037e+01 3.296825011378e+01 
5.399713211456e+01 3.298121002388e+01 
5.403191932279e+01 3.296818875915e+01 
5.410821565154e+01 3.298115105849e+01 
5.414525830552e+01 3.296812812702e+01 
5.421818835218e+01 3.298109278530e+01 
5.425746389768e+01 3.296806820797e+01 
5.432706132622e+01 3.298103519534e+01 
5.436854743466e+01 3.296800899277e+01 
5.443484557126e+01 3.298097827979e+01 
5.447852013530e+01 3.296795047229e+01 
5.454155197246e+01 3.298092202992e+01 
5.458739310933e+01 3.296789263753e+01 
5.464719130992e+01 3.298086643718e+01 
5.469517735438e+01 3.296783547965e+01 
5.475177425560e+01 3.298081149310e+01 
5.480188375557e+01 3.296777898992e+01 
5.485531137026e+01 3.298075718936e+01 
5.490752309304e+01 3.296772315972e+01 
5.495781311350e+01 3.298070351773e+01 
5.501210603872e+01 3.296766798059e+01 
5.505928984053e+01 3.298065047013e+01 
5.511564315337e+01 3.296761344416e+01 
5.515975179911e+01 3.298059803858e+01 
5.521814489662e+01 3.296755954220e+01 
5.525920913945e+01 3.298054621521e+01 
5.531962162365e+01 3.296750626659e+01 
5.535767190835e+01 3.298049499228e+01 
5.542008358222e+01 3.296745360934e+01 
5.545515004869e+01 3.298044436214e+01 
5.551954092257e+01 3.296740156254e+01 
5.555165340668e+01 3.298039431727e+01 
5.561800369146e+01 3.296735011844e+01 
5.564719173115e+01 3.298034485023e+01 
5.571548183181e+01 3.296729926936e+01 
5.574177467297e+01 3.298029595372e+01 
5.581198518979e+01 3.296724900775e+01 
5.583541178433e+01 3.298024762052e+01 
5.590752351427e+01 3.296719932618e+01 
5.592811252335e+01 3.298019984351e+01 
5.600210645608e+01 3.296715021728e+01 
5.601988625592e+01 3.298015261568e+01 
5.609574356744e+01 3.296710167384e+01 
5.611074225239e+01 3.298010593012e+01 
5.618844430646e+01 3.296705368871e+01 
5.620068968943e+01 3.298005978001e+01 
5.628021803904e+01 3.296700625486e+01 
5.628973765189e+01 3.298001415864e+01 
5.637107403551e+01 3.296695936537e+01 
5.637789513466e+01 3.297996905938e+01 
5.646102147255e+01 3.296691301338e+01 
5.646517104181e+01 3.297992447570e+01 
5.655006943500e+01 3.296686719216e+01 
5.655157418848e+01 3.297988040116e+01 
5.663711330519e+01 3.297983682940e+01 
5.663822691777e+01 3.296682189506e+01 
5.672179703172e+01 3.297979375416e+01 
5.672550282493e+01 3.296677711554e+01 
5.680563391897e+01 3.297975116927e+01 
5.681190597160e+01 3.296673284713e+01 
5.688863243590e+01 3.297970906864e+01 
5.689744508830e+01 3.296668908346e+01 
5.697080096854e+01 3.297966744626e+01 
5.698212881483e+01 3.296664581825e+01 
5.705214781648e+01 3.297962629622e+01 
5.706596570209e+01 3.296660304530e+01 
5.713268119719e+01 3.297958561267e+01 
5.714896421902e+01 3.296656075850e+01 
5.721240924504e+01 3.297954538985e+01 
5.723113275166e+01 3.296651895184e+01 
5.729134001035e+01 3.297950562209e+01 
5.731247959959e+01 3.296647761936e+01 
5.736948146626e+01 3.297946630378e+01 
5.739301298031e+01 3.296643675521e+01 
5.744684150768e+01 3.297942742939e+01 
5.747274102816e+01 3.296639635362e+01 
5.752342795027e+01 3.297938899348e+01 
5.755167179346e+01 3.296635640888e+01 
5.759924852938e+01 3.297935099068e+01 
5.762981324937e+01 3.296631691538e+01 
5.767431090170e+01 3.297931341568e+01 
5.770717329079e+01 3.296627786756e+01 
5.774862264936e+01 3.297927626326e+01 
5.778375973338e+01 3.296623925998e+01 
5.782219128147e+01 3.297923952825e+01 
5.785958031250e+01 3.296620108722e+01 
5.793464268482e+01 3.296616334398e+01 
5.800895443248e+01 3.296612602501e+01 
5.808252306458e+01 3.296608912513e+01 
