 TITLE = "Profiles along polylines"
 VARIABLES = "DIST" "HEAD" 
 ZONE T="TIME=0.000000000000e+00"
9.376094781990e+01 0.000000000000e+00 
9.418378076417e+01 0.000000000000e+00 
9.460238538131e+01 0.000000000000e+00 
9.501680395118e+01 0.000000000000e+00 
9.542707833520e+01 0.000000000000e+00 
9.583324997686e+01 0.000000000000e+00 
9.623535990228e+01 0.000000000000e+00 
9.663344872853e+01 0.000000000000e+00 
9.702755666654e+01 0.000000000000e+00 
9.741772352403e+01 0.000000000000e+00 
9.780398871089e+01 0.000000000000e+00 
9.818639124718e+01 0.000000000000e+00 
9.856496975782e+01 0.000000000000e+00 
9.893976248317e+01 0.000000000000e+00 
9.931080728131e+01 0.000000000000e+00 
9.967814163069e+01 0.000000000000e+00 
1.000418026374e+02 0.000000000000e+00 
1.004018270326e+02 0.000000000000e+00 
1.007582511847e+02 0.000000000000e+00 
1.011111110966e+02 0.000000000000e+00 
1.014604424101e+02 0.000000000000e+00 
1.018062804106e+02 0.000000000000e+00 
 TITLE = "Profiles along polylines"
 VARIABLES = "DIST" "HEAD" 
 ZONE T="TIME=1.797693134862e+308"
9.376094781990e+01 3.038376922845e+01 
9.418378076417e+01 3.038311719051e+01 
9.460238538131e+01 3.038247361853e+01 
9.501680395118e+01 3.038183839677e+01 
9.542707833520e+01 3.038121141070e+01 
9.583324997686e+01 3.038059254676e+01 
9.623535990228e+01 3.037998169237e+01 
9.663344872853e+01 3.037937873594e+01 
9.702755666654e+01 3.037878356689e+01 
9.741772352403e+01 3.037819607566e+01 
9.780398871089e+01 3.037761615376e+01 
9.818639124718e+01 3.037704369377e+01 
9.856496975782e+01 3.037647858941e+01 
9.893976248317e+01 3.037592073551e+01 
9.931080728131e+01 3.037537002803e+01 
9.967814163069e+01 3.037482636412e+01 
1.000418026374e+02 3.037428964211e+01 
1.004018270326e+02 3.037375976151e+01 
1.007582511847e+02 3.037323662303e+01 
1.011111110966e+02 3.037272012863e+01 
1.014604424101e+02 3.037221018147e+01 
1.018062804106e+02 3.037170668597e+01 
