 TITLE = "Profiles along polylines"
 VARIABLES = "DIST" "HEAD" 
 ZONE T="TIME=0.000000000000e+00"
2.102161996054e+01 0.000000000000e+00 
2.144445290480e+01 0.000000000000e+00 
2.186305752194e+01 0.000000000000e+00 
2.227747609181e+01 0.000000000000e+00 
2.268775047583e+01 0.000000000000e+00 
2.309392211749e+01 0.000000000000e+00 
2.349603204291e+01 0.000000000000e+00 
2.389412086916e+01 0.000000000000e+00 
2.428822880717e+01 0.000000000000e+00 
2.467839566466e+01 0.000000000000e+00 
2.506466085152e+01 0.000000000000e+00 
2.544706338781e+01 0.000000000000e+00 
2.582564189845e+01 0.000000000000e+00 
2.620043462379e+01 0.000000000000e+00 
2.657147942194e+01 0.000000000000e+00 
2.693881377131e+01 0.000000000000e+00 
2.730247477807e+01 0.000000000000e+00 
2.766249917325e+01 0.000000000000e+00 
2.801892332536e+01 0.000000000000e+00 
2.837178323722e+01 0.000000000000e+00 
2.872111455070e+01 0.000000000000e+00 
2.906695255119e+01 0.000000000000e+00 
2.940933216962e+01 0.000000000000e+00 
2.974828799207e+01 0.000000000000e+00 
3.008385425620e+01 0.000000000000e+00 
3.041606485831e+01 0.000000000000e+00 
3.074495335480e+01 0.000000000000e+00 
3.107055296645e+01 0.000000000000e+00 
3.139289658244e+01 0.000000000000e+00 
3.171201676178e+01 0.000000000000e+00 
3.202794573990e+01 0.000000000000e+00 
3.234071542725e+01 0.000000000000e+00 
3.265035741844e+01 0.000000000000e+00 
3.295690299066e+01 0.000000000000e+00 
3.326038310486e+01 0.000000000000e+00 
3.356082841723e+01 0.000000000000e+00 
3.385826927744e+01 0.000000000000e+00 
3.415273572963e+01 0.000000000000e+00 
3.444425751841e+01 0.000000000000e+00 
3.473286408966e+01 0.000000000000e+00 
3.501858459391e+01 0.000000000000e+00 
3.530144789214e+01 0.000000000000e+00 
3.558148255641e+01 0.000000000000e+00 
3.585871687305e+01 0.000000000000e+00 
3.613317884826e+01 0.000000000000e+00 
3.640489620600e+01 0.000000000000e+00 
3.667389639091e+01 0.000000000000e+00 
3.694020657394e+01 0.000000000000e+00 
3.720385365255e+01 0.000000000000e+00 
3.746486425880e+01 0.000000000000e+00 
3.772326475939e+01 0.000000000000e+00 
3.797908125582e+01 0.000000000000e+00 
3.823233958702e+01 0.000000000000e+00 
3.848306533460e+01 0.000000000000e+00 
3.873128382537e+01 0.000000000000e+00 
3.897702013121e+01 0.000000000000e+00 
3.922029907414e+01 0.000000000000e+00 
3.946114522874e+01 0.000000000000e+00 
3.969958292183e+01 0.000000000000e+00 
3.993563623744e+01 0.000000000000e+00 
4.016932901899e+01 0.000000000000e+00 
4.040068487156e+01 0.000000000000e+00 
4.062972716658e+01 0.000000000000e+00 
4.085647903874e+01 0.000000000000e+00 
4.108096339325e+01 0.000000000000e+00 
4.130320290525e+01 0.000000000000e+00 
4.152322002177e+01 0.000000000000e+00 
4.174103696627e+01 0.000000000000e+00 
4.195667574052e+01 0.000000000000e+00 
4.217015812638e+01 0.000000000000e+00 
4.238150568760e+01 0.000000000000e+00 
4.259073977421e+01 0.000000000000e+00 
4.279788152149e+01 0.000000000000e+00 
4.300295185172e+01 0.000000000000e+00 
4.320597147841e+01 0.000000000000e+00 
4.340696090780e+01 0.000000000000e+00 
4.360594044307e+01 0.000000000000e+00 
4.380293018310e+01 0.000000000000e+00 
4.399795002662e+01 0.000000000000e+00 
4.419101967360e+01 0.000000000000e+00 
4.438215862402e+01 0.000000000000e+00 
4.457138618421e+01 0.000000000000e+00 
4.475872146846e+01 0.000000000000e+00 
4.494418340005e+01 0.000000000000e+00 
4.512779071252e+01 0.000000000000e+00 
4.530956195079e+01 0.000000000000e+00 
4.548951547498e+01 0.000000000000e+00 
4.566766946404e+01 0.000000000000e+00 
4.584404191420e+01 0.000000000000e+00 
4.601865064000e+01 0.000000000000e+00 
4.619151327792e+01 0.000000000000e+00 
4.636264728988e+01 0.000000000000e+00 
4.653206996155e+01 0.000000000000e+00 
4.669979840588e+01 0.000000000000e+00 
4.686584956649e+01 0.000000000000e+00 
4.703024021592e+01 0.000000000000e+00 
4.719298695894e+01 0.000000000000e+00 
4.735410623337e+01 0.000000000000e+00 
4.751361431599e+01 0.000000000000e+00 
4.767152731788e+01 0.000000000000e+00 
4.782786118786e+01 0.000000000000e+00 
4.798263172077e+01 0.000000000000e+00 
4.813585455024e+01 0.000000000000e+00 
4.828754515188e+01 0.000000000000e+00 
4.843771884641e+01 0.000000000000e+00 
4.858639080272e+01 0.000000000000e+00 
4.873357603834e+01 0.000000000000e+00 
4.887928942246e+01 0.000000000000e+00 
4.902354567363e+01 0.000000000000e+00 
4.916635936025e+01 0.000000000000e+00 
4.930774491127e+01 0.000000000000e+00 
4.944771660862e+01 0.000000000000e+00 
4.958628858754e+01 0.000000000000e+00 
4.972347484727e+01 0.000000000000e+00 
4.985928924597e+01 0.000000000000e+00 
4.999374549835e+01 0.000000000000e+00 
5.012685718631e+01 0.000000000000e+00 
5.025863775897e+01 0.000000000000e+00 
5.038910052757e+01 0.000000000000e+00 
5.051825866816e+01 0.000000000000e+00 
5.064612522695e+01 0.000000000000e+00 
5.077271312022e+01 0.000000000000e+00 
5.089803513436e+01 0.000000000000e+00 
5.102210392845e+01 0.000000000000e+00 
5.114493203419e+01 0.000000000000e+00 
5.126653185845e+01 0.000000000000e+00 
5.138691568575e+01 0.000000000000e+00 
5.150609567548e+01 0.000000000000e+00 
5.162408386443e+01 0.000000000000e+00 
5.174089217179e+01 0.000000000000e+00 
5.185653239632e+01 0.000000000000e+00 
5.197101621874e+01 0.000000000000e+00 
5.208435520147e+01 0.000000000000e+00 
5.219656079363e+01 0.000000000000e+00 
5.230764433061e+01 0.000000000000e+00 
5.241761703125e+01 0.000000000000e+00 
5.252649000529e+01 0.000000000000e+00 
5.263427425033e+01 0.000000000000e+00 
5.274098065153e+01 0.000000000000e+00 
5.284661998899e+01 0.000000000000e+00 
5.295120293467e+01 0.000000000000e+00 
5.305474004932e+01 0.000000000000e+00 
5.315724179257e+01 0.000000000000e+00 
5.325871851960e+01 0.000000000000e+00 
5.335918047818e+01 0.000000000000e+00 
5.345863781852e+01 0.000000000000e+00 
5.355710058742e+01 0.000000000000e+00 
5.365457872776e+01 0.000000000000e+00 
5.375108208574e+01 0.000000000000e+00 
5.384662041022e+01 0.000000000000e+00 
5.394120335204e+01 0.000000000000e+00 
5.403484046339e+01 0.000000000000e+00 
5.412754120241e+01 0.000000000000e+00 
5.421931493499e+01 0.000000000000e+00 
5.431017093146e+01 0.000000000000e+00 
5.440011836850e+01 0.000000000000e+00 
5.448916633096e+01 0.000000000000e+00 
5.457732381372e+01 0.000000000000e+00 
5.466459972088e+01 0.000000000000e+00 
5.475100286755e+01 0.000000000000e+00 
5.483654198425e+01 0.000000000000e+00 
5.492122571078e+01 0.000000000000e+00 
5.500506259804e+01 0.000000000000e+00 
5.508806111497e+01 0.000000000000e+00 
5.517022964761e+01 0.000000000000e+00 
5.525157649555e+01 0.000000000000e+00 
5.533210987626e+01 0.000000000000e+00 
5.541183792411e+01 0.000000000000e+00 
5.549076868942e+01 0.000000000000e+00 
5.556891014533e+01 0.000000000000e+00 
5.564627018675e+01 0.000000000000e+00 
5.572285662933e+01 0.000000000000e+00 
5.579867720845e+01 0.000000000000e+00 
5.587373958077e+01 0.000000000000e+00 
5.594805132843e+01 0.000000000000e+00 
5.602161996054e+01 0.000000000000e+00 
 TITLE = "Profiles along polylines"
 VARIABLES = "DIST" "HEAD" 
 ZONE T="TIME=1.797693134862e+308"
2.102161996054e+01 3.309066361117e+01 
2.144445290480e+01 3.309033500156e+01 
2.186305752194e+01 3.309001117510e+01 
2.227747609181e+01 3.308969205404e+01 
2.268775047583e+01 3.308937756198e+01 
2.309392211749e+01 3.308906762389e+01 
2.349603204291e+01 3.308876216602e+01 
2.389412086916e+01 3.308846111594e+01 
2.428822880717e+01 3.308816440247e+01 
2.467839566466e+01 3.308787195568e+01 
2.506466085152e+01 3.308758370689e+01 
2.544706338781e+01 3.308729958858e+01 
2.582564189845e+01 3.308701953444e+01 
2.620043462379e+01 3.308674347931e+01 
2.657147942194e+01 3.308647135918e+01 
2.693881377131e+01 3.308620311115e+01 
2.730247477807e+01 3.308593867340e+01 
2.766249917325e+01 3.308567798523e+01 
2.801892332536e+01 3.308542098695e+01 
2.837178323722e+01 3.308516761995e+01 
2.872111455070e+01 3.308491782662e+01 
2.906695255119e+01 3.308467155035e+01 
2.940933216962e+01 3.308442873553e+01 
2.974828799207e+01 3.308418932749e+01 
3.008385425620e+01 3.308395327253e+01 
3.041606485831e+01 3.308372051788e+01 
3.074495335480e+01 3.308349101166e+01 
3.107055296645e+01 3.308326470292e+01 
3.139289658244e+01 3.308304154156e+01 
3.171201676178e+01 3.308282147837e+01 
3.202794573990e+01 3.308260446498e+01 
3.234071542725e+01 3.308239045384e+01 
3.265035741844e+01 3.308217939823e+01 
3.295690299066e+01 3.308197125224e+01 
3.326038310486e+01 3.308176597074e+01 
3.356082841723e+01 3.308156350937e+01 
3.385826927744e+01 3.308136382454e+01 
3.415273572963e+01 3.308116687339e+01 
3.444425751841e+01 3.308097261381e+01 
3.473286408966e+01 3.308078100439e+01 
3.501858459391e+01 3.308059200445e+01 
3.530144789214e+01 3.308040557399e+01 
3.558148255641e+01 3.308022167368e+01 
3.585871687305e+01 3.308004026487e+01 
3.613317884826e+01 3.307986130956e+01 
3.640489620600e+01 3.307968477041e+01 
3.667389639091e+01 3.307951061068e+01 
3.694020657394e+01 3.307933879428e+01 
3.720385365255e+01 3.307916928571e+01 
3.746486425880e+01 3.307900205009e+01 
3.772326475939e+01 3.307883705310e+01 
3.797908125582e+01 3.307867426101e+01 
3.823233958702e+01 3.307851364066e+01 
3.848306533460e+01 3.307835515944e+01 
3.873128382537e+01 3.307819878527e+01 
3.897702013121e+01 3.307804448665e+01 
3.922029907414e+01 3.307789223255e+01 
3.946114522874e+01 3.307774199250e+01 
3.969958292183e+01 3.307759373651e+01 
3.993563623744e+01 3.307744743512e+01 
4.016932901899e+01 3.307730305931e+01 
4.040068487156e+01 3.307716058059e+01 
4.062972716658e+01 3.307701997090e+01 
4.085647903874e+01 3.307688120268e+01 
4.108096339325e+01 3.307674424880e+01 
4.130320290525e+01 3.307660908258e+01 
4.152322002177e+01 3.307647567778e+01 
4.174103696627e+01 3.307634400860e+01 
4.195667574052e+01 3.307621404965e+01 
4.217015812638e+01 3.307608577597e+01 
4.238150568760e+01 3.307595916298e+01 
4.259073977421e+01 3.307583418653e+01 
4.279788152149e+01 3.307571082286e+01 
4.300295185172e+01 3.307558904857e+01 
4.320597147841e+01 3.307546884066e+01 
4.340696090780e+01 3.307535017652e+01 
4.360594044307e+01 3.307523303388e+01 
4.380293018310e+01 3.307511739082e+01 
4.399795002662e+01 3.307500322581e+01 
4.419101967360e+01 3.307489051763e+01 
4.438215862402e+01 3.307477924543e+01 
4.457138618421e+01 3.307466938869e+01 
4.475872146846e+01 3.307456092719e+01 
4.494418340005e+01 3.307445384108e+01 
4.512779071252e+01 3.307434811078e+01 
4.530956195079e+01 3.307424371706e+01 
4.548951547498e+01 3.307414064097e+01 
4.566766946404e+01 3.307403886388e+01 
4.584404191420e+01 3.307393836745e+01 
4.601865064000e+01 3.307383913362e+01 
4.619151327792e+01 3.307374114463e+01 
4.636264728988e+01 3.307364438300e+01 
4.653206996155e+01 3.307354883151e+01 
4.669979840588e+01 3.307345447322e+01 
4.686584956649e+01 3.307336129147e+01 
4.703024021592e+01 3.307326926984e+01 
4.719298695894e+01 3.307317839218e+01 
4.735410623337e+01 3.307308864259e+01 
4.751361431599e+01 3.307300000541e+01 
4.767152731788e+01 3.307291246524e+01 
4.782786118786e+01 3.307282600691e+01 
4.798263172077e+01 3.307274061549e+01 
4.813585455024e+01 3.307265627626e+01 
4.828754515188e+01 3.307257297477e+01 
4.843771884641e+01 3.307249069675e+01 
4.858639080272e+01 3.307240942819e+01 
4.873357603834e+01 3.307232915526e+01 
4.887928942246e+01 3.307224986436e+01 
4.902354567363e+01 3.307217154210e+01 
4.916635936025e+01 3.307209417530e+01 
4.930774491127e+01 3.307201775096e+01 
4.944771660862e+01 3.307194225630e+01 
4.958628858754e+01 3.307186767874e+01 
4.972347484727e+01 3.307179400585e+01 
4.985928924597e+01 3.307172122545e+01 
4.999374549835e+01 3.307164932549e+01 
5.012685718631e+01 3.307157829414e+01 
5.025863775897e+01 3.307150811972e+01 
5.038910052757e+01 3.307143879076e+01 
5.051825866816e+01 3.307137029593e+01 
5.064612522695e+01 3.307130262408e+01 
5.077271312022e+01 3.307123576425e+01 
5.089803513436e+01 3.307116970561e+01 
5.102210392845e+01 3.307110443751e+01 
5.114493203419e+01 3.307103994947e+01 
5.126653185845e+01 3.307097623114e+01 
5.138691568575e+01 3.307091327234e+01 
5.150609567548e+01 3.307085106304e+01 
5.162408386443e+01 3.307078959337e+01 
5.174089217179e+01 3.307072885357e+01 
5.185653239632e+01 3.307066883407e+01 
5.197101621874e+01 3.307060952541e+01 
5.208435520147e+01 3.307055091828e+01 
5.219656079363e+01 3.307049300351e+01 
5.230764433061e+01 3.307043577206e+01 
5.241761703125e+01 3.307037921502e+01 
5.252649000529e+01 3.307032332362e+01 
5.263427425033e+01 3.307026808920e+01 
5.274098065153e+01 3.307021350326e+01 
5.284661998899e+01 3.307015955738e+01 
5.295120293467e+01 3.307010624330e+01 
5.305474004932e+01 3.307005355285e+01 
5.315724179257e+01 3.307000147801e+01 
5.325871851960e+01 3.306995001085e+01 
5.335918047818e+01 3.306989914356e+01 
5.345863781852e+01 3.306984886845e+01 
5.355710058742e+01 3.306979917794e+01 
5.365457872776e+01 3.306975006455e+01 
5.375108208574e+01 3.306970152091e+01 
5.384662041022e+01 3.306965353977e+01 
5.394120335204e+01 3.306960611397e+01 
5.403484046339e+01 3.306955923644e+01 
5.412754120241e+01 3.306951290024e+01 
5.421931493499e+01 3.306946709851e+01 
5.431017093146e+01 3.306942182448e+01 
5.440011836850e+01 3.306937707150e+01 
5.448916633096e+01 3.306933283299e+01 
5.457732381372e+01 3.306928910248e+01 
5.466459972088e+01 3.306924587359e+01 
5.475100286755e+01 3.306920314001e+01 
5.483654198425e+01 3.306916089555e+01 
5.492122571078e+01 3.306911913407e+01 
5.500506259804e+01 3.306907784956e+01 
5.508806111497e+01 3.306903703605e+01 
5.517022964761e+01 3.306899668768e+01 
5.525157649555e+01 3.306895679867e+01 
5.533210987626e+01 3.306891736330e+01 
5.541183792411e+01 3.306887837596e+01 
5.549076868942e+01 3.306883983109e+01 
5.556891014533e+01 3.306880172323e+01 
5.564627018675e+01 3.306876404698e+01 
5.572285662933e+01 3.306872679702e+01 
5.579867720845e+01 3.306868996810e+01 
5.587373958077e+01 3.306865355504e+01 
5.594805132843e+01 3.306861755274e+01 
5.602161996054e+01 3.306858195617e+01 
