 TITLE = "Profiles along polylines"
 VARIABLES = "DIST" "HEAD" 
 ZONE T="TIME=0.000000000000e+00"
2.790484911397e+01 0.000000000000e+00 
2.818048469452e+01 0.000000000000e+00 
2.832768205823e+01 0.000000000000e+00 
2.860331763878e+01 0.000000000000e+00 
2.874628667537e+01 0.000000000000e+00 
2.902192225592e+01 0.000000000000e+00 
2.916070524525e+01 0.000000000000e+00 
2.943634082579e+01 0.000000000000e+00 
2.957097962927e+01 0.000000000000e+00 
2.984661520981e+01 0.000000000000e+00 
2.997715127092e+01 0.000000000000e+00 
3.025278685147e+01 0.000000000000e+00 
3.037926119634e+01 0.000000000000e+00 
3.065489677689e+01 0.000000000000e+00 
3.077735002259e+01 0.000000000000e+00 
3.105298560314e+01 0.000000000000e+00 
3.117145796061e+01 0.000000000000e+00 
3.144709354115e+01 0.000000000000e+00 
3.156162481809e+01 0.000000000000e+00 
3.183726039864e+01 0.000000000000e+00 
3.194789000495e+01 0.000000000000e+00 
3.222352558550e+01 0.000000000000e+00 
3.233029254124e+01 0.000000000000e+00 
3.260592812179e+01 0.000000000000e+00 
3.270887105188e+01 0.000000000000e+00 
3.298450663243e+01 0.000000000000e+00 
3.308366377723e+01 0.000000000000e+00 
3.335929935777e+01 0.000000000000e+00 
3.345470857537e+01 0.000000000000e+00 
3.373034415592e+01 0.000000000000e+00 
3.382204292474e+01 0.000000000000e+00 
3.409767850529e+01 0.000000000000e+00 
3.418570393151e+01 0.000000000000e+00 
3.446133951206e+01 0.000000000000e+00 
3.454572832668e+01 0.000000000000e+00 
3.482136390723e+01 0.000000000000e+00 
3.490215247880e+01 0.000000000000e+00 
3.517778805934e+01 0.000000000000e+00 
3.525501239066e+01 0.000000000000e+00 
3.553064797121e+01 0.000000000000e+00 
3.560434370413e+01 0.000000000000e+00 
3.587997928468e+01 0.000000000000e+00 
3.595018170462e+01 0.000000000000e+00 
3.622581728517e+01 0.000000000000e+00 
3.629256132306e+01 0.000000000000e+00 
3.656819690361e+01 0.000000000000e+00 
3.663151714550e+01 0.000000000000e+00 
3.690715272605e+01 0.000000000000e+00 
3.696708340964e+01 0.000000000000e+00 
3.724271899019e+01 0.000000000000e+00 
3.729929401175e+01 0.000000000000e+00 
3.757492959229e+01 0.000000000000e+00 
3.762818250823e+01 0.000000000000e+00 
3.790381808878e+01 0.000000000000e+00 
3.795378211988e+01 0.000000000000e+00 
3.822941770043e+01 0.000000000000e+00 
3.827612573587e+01 0.000000000000e+00 
3.855176131642e+01 0.000000000000e+00 
3.859524591522e+01 0.000000000000e+00 
3.887088149577e+01 0.000000000000e+00 
3.891117489334e+01 0.000000000000e+00 
3.918681047389e+01 0.000000000000e+00 
3.922394458069e+01 0.000000000000e+00 
3.949958016124e+01 0.000000000000e+00 
3.953358657188e+01 0.000000000000e+00 
3.980922215243e+01 0.000000000000e+00 
3.984013214410e+01 0.000000000000e+00 
4.011576772464e+01 0.000000000000e+00 
4.014361225830e+01 0.000000000000e+00 
4.041924783885e+01 0.000000000000e+00 
4.044405757067e+01 0.000000000000e+00 
4.071969315121e+01 0.000000000000e+00 
4.074149843088e+01 0.000000000000e+00 
4.101713401143e+01 0.000000000000e+00 
4.103596488306e+01 0.000000000000e+00 
4.131160046361e+01 0.000000000000e+00 
4.132748667184e+01 0.000000000000e+00 
4.160312225239e+01 0.000000000000e+00 
4.161609324310e+01 0.000000000000e+00 
4.189172882365e+01 0.000000000000e+00 
4.190181374734e+01 0.000000000000e+00 
4.217744932789e+01 0.000000000000e+00 
4.218467704557e+01 0.000000000000e+00 
4.246031262612e+01 0.000000000000e+00 
4.246471170985e+01 0.000000000000e+00 
4.274034729040e+01 0.000000000000e+00 
4.274194602648e+01 0.000000000000e+00 
4.301640800170e+01 0.000000000000e+00 
4.301758160703e+01 0.000000000000e+00 
4.328812535943e+01 0.000000000000e+00 
4.329204358225e+01 0.000000000000e+00 
4.355712554435e+01 0.000000000000e+00 
4.356376093998e+01 0.000000000000e+00 
4.382343572738e+01 0.000000000000e+00 
4.383276112489e+01 0.000000000000e+00 
4.408708280599e+01 0.000000000000e+00 
4.409907130793e+01 0.000000000000e+00 
4.434809341224e+01 0.000000000000e+00 
4.436271838654e+01 0.000000000000e+00 
4.460649391282e+01 0.000000000000e+00 
4.462372899279e+01 0.000000000000e+00 
4.486231040926e+01 0.000000000000e+00 
4.488212949337e+01 0.000000000000e+00 
4.511556874045e+01 0.000000000000e+00 
4.513794598981e+01 0.000000000000e+00 
4.536629448804e+01 0.000000000000e+00 
4.539120432100e+01 0.000000000000e+00 
4.561451297881e+01 0.000000000000e+00 
4.564193006859e+01 0.000000000000e+00 
4.586024928464e+01 0.000000000000e+00 
4.589014855935e+01 0.000000000000e+00 
4.610352822757e+01 0.000000000000e+00 
4.613588486519e+01 0.000000000000e+00 
4.634437438218e+01 0.000000000000e+00 
4.637916380812e+01 0.000000000000e+00 
4.658281207527e+01 0.000000000000e+00 
4.662000996273e+01 0.000000000000e+00 
4.681886539088e+01 0.000000000000e+00 
4.685844765582e+01 0.000000000000e+00 
4.705255817242e+01 0.000000000000e+00 
4.709450097142e+01 0.000000000000e+00 
4.728391402499e+01 0.000000000000e+00 
4.732819375297e+01 0.000000000000e+00 
4.751295632002e+01 0.000000000000e+00 
4.755954960554e+01 0.000000000000e+00 
4.773970819217e+01 0.000000000000e+00 
4.778859190057e+01 0.000000000000e+00 
4.796419254669e+01 0.000000000000e+00 
4.801534377272e+01 0.000000000000e+00 
4.818643205868e+01 0.000000000000e+00 
4.823982812724e+01 0.000000000000e+00 
4.840644917520e+01 0.000000000000e+00 
4.846206763923e+01 0.000000000000e+00 
4.862426611971e+01 0.000000000000e+00 
4.868208475575e+01 0.000000000000e+00 
4.883990489396e+01 0.000000000000e+00 
4.889990170026e+01 0.000000000000e+00 
4.905338727981e+01 0.000000000000e+00 
4.911554047451e+01 0.000000000000e+00 
4.926473484104e+01 0.000000000000e+00 
4.932902286036e+01 0.000000000000e+00 
4.947396892764e+01 0.000000000000e+00 
4.954037042159e+01 0.000000000000e+00 
4.968111067492e+01 0.000000000000e+00 
4.974960450819e+01 0.000000000000e+00 
4.988618100516e+01 0.000000000000e+00 
4.995674625547e+01 0.000000000000e+00 
5.008920063185e+01 0.000000000000e+00 
5.016181658571e+01 0.000000000000e+00 
5.029019006124e+01 0.000000000000e+00 
5.036483621240e+01 0.000000000000e+00 
5.048916959650e+01 0.000000000000e+00 
5.056582564179e+01 0.000000000000e+00 
5.068615933653e+01 0.000000000000e+00 
5.076480517705e+01 0.000000000000e+00 
5.088117918006e+01 0.000000000000e+00 
5.096179491708e+01 0.000000000000e+00 
5.107424882704e+01 0.000000000000e+00 
5.115681476061e+01 0.000000000000e+00 
5.126538777746e+01 0.000000000000e+00 
5.134988440758e+01 0.000000000000e+00 
5.145461533764e+01 0.000000000000e+00 
5.154102335801e+01 0.000000000000e+00 
5.164195062189e+01 0.000000000000e+00 
5.173025091819e+01 0.000000000000e+00 
5.182741255349e+01 0.000000000000e+00 
5.191758620244e+01 0.000000000000e+00 
5.201101986595e+01 0.000000000000e+00 
5.210304813403e+01 0.000000000000e+00 
5.219279110423e+01 0.000000000000e+00 
5.228665544650e+01 0.000000000000e+00 
5.237274462841e+01 0.000000000000e+00 
5.246842668477e+01 0.000000000000e+00 
5.255089861747e+01 0.000000000000e+00 
5.264838020896e+01 0.000000000000e+00 
5.272727106763e+01 0.000000000000e+00 
5.282653419802e+01 0.000000000000e+00 
5.290187979344e+01 0.000000000000e+00 
5.300290664818e+01 0.000000000000e+00 
5.307474243135e+01 0.000000000000e+00 
5.317751537399e+01 0.000000000000e+00 
5.324587644331e+01 0.000000000000e+00 
5.335037801190e+01 0.000000000000e+00 
5.341529911498e+01 0.000000000000e+00 
5.352151202386e+01 0.000000000000e+00 
5.358302755931e+01 0.000000000000e+00 
5.369093469553e+01 0.000000000000e+00 
5.374907871993e+01 0.000000000000e+00 
5.385866313986e+01 0.000000000000e+00 
5.391346936935e+01 0.000000000000e+00 
5.402471430048e+01 0.000000000000e+00 
5.407621611238e+01 0.000000000000e+00 
5.418910494990e+01 0.000000000000e+00 
5.423733538681e+01 0.000000000000e+00 
5.435185169292e+01 0.000000000000e+00 
5.439684346942e+01 0.000000000000e+00 
5.451297096735e+01 0.000000000000e+00 
5.455475647132e+01 0.000000000000e+00 
5.467247904997e+01 0.000000000000e+00 
5.471109034129e+01 0.000000000000e+00 
5.483039205187e+01 0.000000000000e+00 
5.486586087420e+01 0.000000000000e+00 
5.498672592184e+01 0.000000000000e+00 
5.501908370367e+01 0.000000000000e+00 
5.514149645475e+01 0.000000000000e+00 
5.517077430532e+01 0.000000000000e+00 
5.529471928422e+01 0.000000000000e+00 
5.532094799984e+01 0.000000000000e+00 
5.544640988586e+01 0.000000000000e+00 
5.546961995615e+01 0.000000000000e+00 
5.559658358039e+01 0.000000000000e+00 
5.561680519177e+01 0.000000000000e+00 
5.574525553670e+01 0.000000000000e+00 
5.576251857589e+01 0.000000000000e+00 
5.589244077232e+01 0.000000000000e+00 
5.590677482706e+01 0.000000000000e+00 
5.603815415644e+01 0.000000000000e+00 
5.604958851368e+01 0.000000000000e+00 
5.618241040761e+01 0.000000000000e+00 
5.619097406470e+01 0.000000000000e+00 
5.632522409423e+01 0.000000000000e+00 
5.633094576205e+01 0.000000000000e+00 
5.646660964525e+01 0.000000000000e+00 
5.646951774097e+01 0.000000000000e+00 
5.660658134260e+01 0.000000000000e+00 
5.660670400070e+01 0.000000000000e+00 
5.674251839940e+01 0.000000000000e+00 
5.674515332152e+01 0.000000000000e+00 
5.687697465178e+01 0.000000000000e+00 
5.688233958125e+01 0.000000000000e+00 
5.701008633974e+01 0.000000000000e+00 
5.701815397995e+01 0.000000000000e+00 
5.714186691240e+01 0.000000000000e+00 
5.715261023233e+01 0.000000000000e+00 
5.727232968100e+01 0.000000000000e+00 
5.728572192029e+01 0.000000000000e+00 
5.740148782160e+01 0.000000000000e+00 
5.741750249295e+01 0.000000000000e+00 
5.752935438039e+01 0.000000000000e+00 
5.754796526155e+01 0.000000000000e+00 
5.765594227365e+01 0.000000000000e+00 
5.767712340215e+01 0.000000000000e+00 
5.778126428779e+01 0.000000000000e+00 
5.780498996094e+01 0.000000000000e+00 
5.790533308188e+01 0.000000000000e+00 
5.793157785420e+01 0.000000000000e+00 
5.802816118762e+01 0.000000000000e+00 
5.805689986834e+01 0.000000000000e+00 
5.814976101188e+01 0.000000000000e+00 
5.818096866243e+01 0.000000000000e+00 
5.827014483918e+01 0.000000000000e+00 
5.830379676817e+01 0.000000000000e+00 
5.838932482891e+01 0.000000000000e+00 
5.842539659243e+01 0.000000000000e+00 
5.850731301786e+01 0.000000000000e+00 
5.854578041973e+01 0.000000000000e+00 
5.862412132522e+01 0.000000000000e+00 
5.866496040946e+01 0.000000000000e+00 
5.873976154975e+01 0.000000000000e+00 
5.878294859841e+01 0.000000000000e+00 
5.885424537218e+01 0.000000000000e+00 
5.889975690577e+01 0.000000000000e+00 
5.896758435491e+01 0.000000000000e+00 
5.901539713030e+01 0.000000000000e+00 
5.907978994706e+01 0.000000000000e+00 
5.912988095272e+01 0.000000000000e+00 
5.919087348404e+01 0.000000000000e+00 
5.924321993545e+01 0.000000000000e+00 
5.930084618468e+01 0.000000000000e+00 
5.935542552761e+01 0.000000000000e+00 
5.940971915872e+01 0.000000000000e+00 
5.946650906459e+01 0.000000000000e+00 
5.951750340376e+01 0.000000000000e+00 
5.957648176523e+01 0.000000000000e+00 
5.962420980496e+01 0.000000000000e+00 
5.968535473927e+01 0.000000000000e+00 
5.972984914242e+01 0.000000000000e+00 
5.979313898431e+01 0.000000000000e+00 
5.983443208810e+01 0.000000000000e+00 
5.989984538551e+01 0.000000000000e+00 
5.993796920276e+01 0.000000000000e+00 
6.000548472297e+01 0.000000000000e+00 
6.004047094600e+01 0.000000000000e+00 
6.011006766865e+01 0.000000000000e+00 
6.014194767303e+01 0.000000000000e+00 
6.021360478330e+01 0.000000000000e+00 
6.024240963161e+01 0.000000000000e+00 
6.031610652655e+01 0.000000000000e+00 
6.034186697195e+01 0.000000000000e+00 
6.041758325358e+01 0.000000000000e+00 
6.044032974085e+01 0.000000000000e+00 
6.051804521216e+01 0.000000000000e+00 
6.053780788119e+01 0.000000000000e+00 
6.061750255250e+01 0.000000000000e+00 
6.063431123917e+01 0.000000000000e+00 
6.071596532140e+01 0.000000000000e+00 
6.072984956365e+01 0.000000000000e+00 
6.081344346174e+01 0.000000000000e+00 
6.082443250547e+01 0.000000000000e+00 
6.090994681972e+01 0.000000000000e+00 
6.091806961683e+01 0.000000000000e+00 
6.100548514420e+01 0.000000000000e+00 
6.101077035584e+01 0.000000000000e+00 
6.110006808602e+01 0.000000000000e+00 
6.110254408842e+01 0.000000000000e+00 
6.119340008489e+01 0.000000000000e+00 
6.119370519737e+01 0.000000000000e+00 
6.128334752193e+01 0.000000000000e+00 
6.128640593639e+01 0.000000000000e+00 
6.137239548439e+01 0.000000000000e+00 
6.137817966897e+01 0.000000000000e+00 
6.146055296715e+01 0.000000000000e+00 
6.146903566544e+01 0.000000000000e+00 
6.154782887431e+01 0.000000000000e+00 
6.155898310248e+01 0.000000000000e+00 
6.163423202098e+01 0.000000000000e+00 
6.164803106494e+01 0.000000000000e+00 
6.171977113769e+01 0.000000000000e+00 
6.173618854770e+01 0.000000000000e+00 
6.180445486421e+01 0.000000000000e+00 
6.182346445486e+01 0.000000000000e+00 
6.188829175147e+01 0.000000000000e+00 
6.190986760153e+01 0.000000000000e+00 
6.197129026840e+01 0.000000000000e+00 
6.199540671823e+01 0.000000000000e+00 
6.205345880104e+01 0.000000000000e+00 
6.208009044476e+01 0.000000000000e+00 
6.213480564898e+01 0.000000000000e+00 
6.216392733202e+01 0.000000000000e+00 
6.221533902969e+01 0.000000000000e+00 
6.224692584895e+01 0.000000000000e+00 
6.229506707754e+01 0.000000000000e+00 
6.232909438159e+01 0.000000000000e+00 
6.237399784285e+01 0.000000000000e+00 
6.241044122952e+01 0.000000000000e+00 
6.245213929876e+01 0.000000000000e+00 
6.249097461024e+01 0.000000000000e+00 
6.252949934018e+01 0.000000000000e+00 
6.257070265809e+01 0.000000000000e+00 
6.260608578277e+01 0.000000000000e+00 
6.264963342340e+01 0.000000000000e+00 
6.268190636188e+01 0.000000000000e+00 
6.272777487931e+01 0.000000000000e+00 
6.275696873420e+01 0.000000000000e+00 
6.280513492073e+01 0.000000000000e+00 
6.283128048186e+01 0.000000000000e+00 
6.288172136331e+01 0.000000000000e+00 
6.290484911397e+01 0.000000000000e+00 
6.295754194243e+01 0.000000000000e+00 
6.303260431475e+01 0.000000000000e+00 
6.310691606241e+01 0.000000000000e+00 
6.318048469452e+01 0.000000000000e+00 
 TITLE = "Profiles along polylines"
 VARIABLES = "DIST" "HEAD" 
 ZONE T="TIME=1.797693134862e+308"
2.790484911397e+01 3.273601719213e+01 
2.818048469452e+01 3.272095976724e+01 
2.832768205823e+01 3.273566351520e+01 
2.860331763878e+01 3.272060509674e+01 
2.874628667537e+01 3.273531484532e+01 
2.902192225592e+01 3.272025543843e+01 
2.916070524525e+01 3.273497110300e+01 
2.943634082579e+01 3.271991071284e+01 
2.957097962927e+01 3.273463221017e+01 
2.984661520981e+01 3.271957084189e+01 
2.997715127092e+01 3.273429809013e+01 
3.025278685147e+01 3.271923574891e+01 
3.037926119634e+01 3.273396866755e+01 
3.065489677689e+01 3.271890535858e+01 
3.077735002259e+01 3.273364386840e+01 
3.105298560314e+01 3.271857959688e+01 
3.117145796061e+01 3.273332361997e+01 
3.144709354115e+01 3.271825839114e+01 
3.156162481809e+01 3.273300785081e+01 
3.183726039864e+01 3.271794166995e+01 
3.194789000495e+01 3.273269649072e+01 
3.222352558550e+01 3.271762936313e+01 
3.233029254124e+01 3.273238947074e+01 
3.260592812179e+01 3.271732140176e+01 
3.270887105188e+01 3.273208672309e+01 
3.298450663243e+01 3.271701771810e+01 
3.308366377723e+01 3.273178818118e+01 
3.335929935777e+01 3.271671824562e+01 
3.345470857537e+01 3.273149377958e+01 
3.373034415592e+01 3.271642291891e+01 
3.382204292474e+01 3.273120345399e+01 
3.409767850529e+01 3.271613167372e+01 
3.418570393151e+01 3.273091714120e+01 
3.446133951206e+01 3.271584444690e+01 
3.454572832668e+01 3.273063477913e+01 
3.482136390723e+01 3.271556117641e+01 
3.490215247880e+01 3.273035630674e+01 
3.517778805934e+01 3.271528180124e+01 
3.525501239066e+01 3.273008166403e+01 
3.553064797121e+01 3.271500626148e+01 
3.560434370413e+01 3.272981079207e+01 
3.587997928468e+01 3.271473449819e+01 
3.595018170462e+01 3.272954363288e+01 
3.622581728517e+01 3.271446645350e+01 
3.629256132306e+01 3.272928012953e+01 
3.656819690361e+01 3.271420207048e+01 
3.663151714550e+01 3.272902022602e+01 
3.690715272605e+01 3.271394129319e+01 
3.696708340964e+01 3.272876386731e+01 
3.724271899019e+01 3.271368406664e+01 
3.729929401175e+01 3.272851099930e+01 
3.757492959229e+01 3.271343033678e+01 
3.762818250823e+01 3.272826156881e+01 
3.790381808878e+01 3.271318005046e+01 
3.795378211988e+01 3.272801552356e+01 
3.822941770043e+01 3.271293315544e+01 
3.827612573587e+01 3.272777281213e+01 
3.855176131642e+01 3.271268960035e+01 
3.859524591522e+01 3.272753338399e+01 
3.887088149577e+01 3.271244933470e+01 
3.891117489334e+01 3.272729718946e+01 
3.918681047389e+01 3.271221230883e+01 
3.922394458069e+01 3.272706417967e+01 
3.949958016124e+01 3.271197847393e+01 
3.953358657188e+01 3.272683430661e+01 
3.980922215243e+01 3.271174778200e+01 
3.984013214410e+01 3.272660752302e+01 
4.011576772464e+01 3.271152018583e+01 
4.014361225830e+01 3.272638378249e+01 
4.041924783885e+01 3.271129563901e+01 
4.044405757067e+01 3.272616303932e+01 
4.071969315121e+01 3.271107409590e+01 
4.074149843088e+01 3.272594524862e+01 
4.101713401143e+01 3.271085551162e+01 
4.103596488306e+01 3.272573036622e+01 
4.131160046361e+01 3.271063984202e+01 
4.132748667184e+01 3.272551834869e+01 
4.160312225239e+01 3.271042704369e+01 
4.161609324310e+01 3.272530915332e+01 
4.189172882365e+01 3.271021707394e+01 
4.190181374734e+01 3.272510273809e+01 
4.217744932789e+01 3.271000989078e+01 
4.218467704557e+01 3.272489906171e+01 
4.246031262612e+01 3.270980545291e+01 
4.246471170985e+01 3.272469808353e+01 
4.274034729040e+01 3.270960371970e+01 
4.274194602648e+01 3.272449976358e+01 
4.301640800170e+01 3.272430406257e+01 
4.301758160703e+01 3.270940465121e+01 
4.328812535943e+01 3.272411094181e+01 
4.329204358225e+01 3.270920820812e+01 
4.355712554435e+01 3.272392036329e+01 
4.356376093998e+01 3.270901435178e+01 
4.382343572738e+01 3.272373228958e+01 
4.383276112489e+01 3.270882304415e+01 
4.408708280599e+01 3.272354668389e+01 
4.409907130793e+01 3.270863424783e+01 
4.434809341224e+01 3.272336351001e+01 
4.436271838654e+01 3.270844792602e+01 
4.460649391282e+01 3.272318273233e+01 
4.462372899279e+01 3.270826404250e+01 
4.486231040926e+01 3.272300431581e+01 
4.488212949337e+01 3.270808256166e+01 
4.511556874045e+01 3.272282822599e+01 
4.513794598981e+01 3.270790344845e+01 
4.536629448804e+01 3.272265442896e+01 
4.539120432100e+01 3.270772666840e+01 
4.561451297881e+01 3.272248289134e+01 
4.564193006859e+01 3.270755218759e+01 
4.586024928464e+01 3.272231358032e+01 
4.589014855935e+01 3.270737997264e+01 
4.610352822757e+01 3.272214646360e+01 
4.613588486519e+01 3.270720999070e+01 
4.634437438218e+01 3.272198150941e+01 
4.637916380812e+01 3.270704220948e+01 
4.658281207527e+01 3.272181868647e+01 
4.662000996273e+01 3.270687659717e+01 
4.681886539088e+01 3.272165796403e+01 
4.685844765582e+01 3.270671312248e+01 
4.705255817242e+01 3.272149931181e+01 
4.709450097142e+01 3.270655175464e+01 
4.728391402499e+01 3.272134270002e+01 
4.732819375297e+01 3.270639246335e+01 
4.751295632002e+01 3.272118809935e+01 
4.755954960554e+01 3.270623521879e+01 
4.773970819217e+01 3.272103548096e+01 
4.778859190057e+01 3.270607999163e+01 
4.796419254669e+01 3.272088481646e+01 
4.801534377272e+01 3.270592675299e+01 
4.818643205868e+01 3.272073607791e+01 
4.823982812724e+01 3.270577547446e+01 
4.840644917520e+01 3.272058923782e+01 
4.846206763923e+01 3.270562612807e+01 
4.862426611971e+01 3.272044426914e+01 
4.868208475575e+01 3.270547868631e+01 
4.883990489396e+01 3.272030114524e+01 
4.889990170026e+01 3.270533312208e+01 
4.905338727981e+01 3.272015983991e+01 
4.911554047451e+01 3.270518940872e+01 
4.926473484104e+01 3.272002032737e+01 
4.932902286036e+01 3.270504752000e+01 
4.947396892764e+01 3.271988258221e+01 
4.954037042159e+01 3.270490743008e+01 
4.968111067492e+01 3.271974657946e+01 
4.974960450819e+01 3.270476911354e+01 
4.988618100516e+01 3.271961229451e+01 
4.995674625547e+01 3.270463254535e+01 
5.008920063185e+01 3.271947970317e+01 
5.016181658571e+01 3.270449770089e+01 
5.029019006124e+01 3.271934878161e+01 
5.036483621240e+01 3.270436455591e+01 
5.048916959650e+01 3.271921950635e+01 
5.056582564179e+01 3.270423308653e+01 
5.068615933653e+01 3.271909185433e+01 
5.076480517705e+01 3.270410326926e+01 
5.088117918006e+01 3.271896580280e+01 
5.096179491708e+01 3.270397508098e+01 
5.107424882704e+01 3.271884132939e+01 
5.115681476061e+01 3.270384849890e+01 
5.126538777746e+01 3.271871841207e+01 
5.134988440758e+01 3.270372350060e+01 
5.145461533764e+01 3.271859702916e+01 
5.154102335801e+01 3.270360006403e+01 
5.164195062189e+01 3.271847715931e+01 
5.173025091819e+01 3.270347816745e+01 
5.182741255349e+01 3.271835878150e+01 
5.191758620244e+01 3.270335778947e+01 
5.201101986595e+01 3.271824187504e+01 
5.210304813403e+01 3.270323890903e+01 
5.219279110423e+01 3.271812641955e+01 
5.228665544650e+01 3.270312150538e+01 
5.237274462841e+01 3.271801239499e+01 
5.246842668477e+01 3.270300555812e+01 
5.255089861747e+01 3.271789978158e+01 
5.264838020896e+01 3.270289104713e+01 
5.272727106763e+01 3.271778855990e+01 
5.282653419802e+01 3.270277795263e+01 
5.290187979344e+01 3.271767871080e+01 
5.300290664818e+01 3.270266625511e+01 
5.307474243135e+01 3.271757021541e+01 
5.317751537399e+01 3.270255593539e+01 
5.324587644331e+01 3.271746305517e+01 
5.335037801190e+01 3.270244697457e+01 
5.341529911498e+01 3.271735721181e+01 
5.352151202386e+01 3.270233935403e+01 
5.358302755931e+01 3.271725266732e+01 
5.369093469553e+01 3.270223305544e+01 
5.374907871993e+01 3.271714940398e+01 
5.385866313986e+01 3.270212806077e+01 
5.391346936935e+01 3.271704740432e+01 
5.402471430048e+01 3.270202435222e+01 
5.407621611238e+01 3.271694665116e+01 
5.418910494990e+01 3.270192191231e+01 
5.423733538681e+01 3.271684712756e+01 
5.435185169292e+01 3.270182072379e+01 
5.439684346942e+01 3.271674881686e+01 
5.451297096735e+01 3.270172076968e+01 
5.455475647132e+01 3.271665170262e+01 
5.467247904997e+01 3.270162203326e+01 
5.471109034129e+01 3.271655576868e+01 
5.483039205187e+01 3.270152449807e+01 
5.486586087420e+01 3.271646099910e+01 
5.498672592184e+01 3.270142814788e+01 
5.501908370367e+01 3.271636737820e+01 
5.514149645475e+01 3.270133296672e+01 
5.517077430532e+01 3.271627489052e+01 
5.529471928422e+01 3.270123893884e+01 
5.532094799984e+01 3.271618352085e+01 
5.544640988586e+01 3.270114604876e+01 
5.546961995615e+01 3.271609325419e+01 
5.559658358039e+01 3.270105428121e+01 
5.561680519177e+01 3.271600407577e+01 
5.574525553670e+01 3.270096362114e+01 
5.576251857589e+01 3.271591597105e+01 
5.589244077232e+01 3.270087405374e+01 
5.590677482706e+01 3.271582892569e+01 
5.603815415644e+01 3.270078556442e+01 
5.604958851368e+01 3.271574292559e+01 
5.618241040761e+01 3.270069813881e+01 
5.619097406470e+01 3.271565795683e+01 
5.632522409423e+01 3.270061176273e+01 
5.633094576205e+01 3.271557400571e+01 
5.646660964525e+01 3.270052642225e+01 
5.646951774097e+01 3.271549105875e+01 
5.660658134260e+01 3.270044210362e+01 
5.660670400070e+01 3.271540910265e+01 
5.674251839940e+01 3.271532812430e+01 
5.674515332152e+01 3.270035879329e+01 
5.687697465178e+01 3.271524811081e+01 
5.688233958125e+01 3.270027647794e+01 
5.701008633974e+01 3.271516904946e+01 
5.701815397995e+01 3.270019514440e+01 
5.714186691240e+01 3.271509092772e+01 
5.715261023233e+01 3.270011477975e+01 
5.727232968100e+01 3.271501373325e+01 
5.728572192029e+01 3.270003537121e+01 
5.740148782160e+01 3.271493745388e+01 
5.741750249295e+01 3.269995690622e+01 
5.752935438039e+01 3.271486207764e+01 
5.754796526155e+01 3.269987937239e+01 
5.765594227365e+01 3.271478759273e+01 
5.767712340215e+01 3.269980275752e+01 
5.778126428779e+01 3.271471398749e+01 
5.780498996094e+01 3.269972704958e+01 
5.790533308188e+01 3.271464125047e+01 
5.793157785420e+01 3.269965223672e+01 
5.802816118762e+01 3.271456937038e+01 
5.805689986834e+01 3.269957830727e+01 
5.814976101188e+01 3.271449833607e+01 
5.818096866243e+01 3.269950524971e+01 
5.827014483918e+01 3.271442813658e+01 
5.830379676817e+01 3.269943305272e+01 
5.838932482891e+01 3.271435876109e+01 
5.842539659243e+01 3.269936170512e+01 
5.850731301786e+01 3.271429019895e+01 
5.854578041973e+01 3.269929119588e+01 
5.862412132522e+01 3.271422243966e+01 
5.866496040946e+01 3.269922151417e+01 
5.873976154975e+01 3.271415547286e+01 
5.878294859841e+01 3.269915264928e+01 
5.885424537218e+01 3.271408928837e+01 
5.889975690577e+01 3.269908459068e+01 
5.896758435491e+01 3.271402387611e+01 
5.901539713030e+01 3.269901732797e+01 
5.907978994706e+01 3.271395922619e+01 
5.912988095272e+01 3.269895085092e+01 
5.919087348404e+01 3.271389532884e+01 
5.924321993545e+01 3.269888514943e+01 
5.930084618468e+01 3.271383217442e+01 
5.935542552761e+01 3.269882021356e+01 
5.940971915872e+01 3.271376975345e+01 
5.946650906459e+01 3.269875603350e+01 
5.951750340376e+01 3.271370805658e+01 
5.957648176523e+01 3.269869259958e+01 
5.962420980496e+01 3.271364707459e+01 
5.968535473927e+01 3.269862990229e+01 
5.972984914242e+01 3.271358679838e+01 
5.979313898431e+01 3.269856793222e+01 
5.983443208810e+01 3.271352721900e+01 
5.989984538551e+01 3.269850668013e+01 
5.993796920276e+01 3.271346832761e+01 
6.000548472297e+01 3.269844613688e+01 
6.004047094600e+01 3.271341011550e+01 
6.011006766865e+01 3.269838629348e+01 
6.014194767303e+01 3.271335257409e+01 
6.021360478330e+01 3.269832714107e+01 
6.024240963161e+01 3.271329569493e+01 
6.031610652655e+01 3.269826867089e+01 
6.034186697195e+01 3.271323946965e+01 
6.041758325358e+01 3.269821087434e+01 
6.044032974085e+01 3.271318389004e+01 
6.051804521216e+01 3.269815374291e+01 
6.053780788119e+01 3.271312894798e+01 
6.061750255250e+01 3.269809726822e+01 
6.063431123917e+01 3.271307463548e+01 
6.071596532140e+01 3.269804144202e+01 
6.072984956365e+01 3.271302094466e+01 
6.081344346174e+01 3.269798625615e+01 
6.082443250547e+01 3.271296786773e+01 
6.090994681972e+01 3.269793170260e+01 
6.091806961683e+01 3.271291539703e+01 
6.100548514420e+01 3.269787777345e+01 
6.101077035584e+01 3.271286352500e+01 
6.110006808602e+01 3.269782446087e+01 
6.110254408842e+01 3.271281224419e+01 
6.119340008489e+01 3.271276154725e+01 
6.119370519737e+01 3.269777175719e+01 
6.128334752193e+01 3.271271142692e+01 
6.128640593639e+01 3.269771965480e+01 
6.137239548439e+01 3.271266187606e+01 
6.137817966897e+01 3.269766814623e+01 
6.146055296715e+01 3.271261288762e+01 
6.146903566544e+01 3.269761722408e+01 
6.154782887431e+01 3.271256445465e+01 
6.155898310248e+01 3.269756688108e+01 
6.163423202098e+01 3.271251657028e+01 
6.164803106494e+01 3.269751711006e+01 
6.171977113769e+01 3.271246922777e+01 
6.173618854770e+01 3.269746790393e+01 
6.180445486421e+01 3.271242242043e+01 
6.182346445486e+01 3.269741925571e+01 
6.188829175147e+01 3.271237614169e+01 
6.190986760153e+01 3.269737115852e+01 
6.197129026840e+01 3.271233038507e+01 
6.199540671823e+01 3.269732360556e+01 
6.205345880104e+01 3.271228514415e+01 
6.208009044476e+01 3.269727659014e+01 
6.213480564898e+01 3.271224041264e+01 
6.216392733202e+01 3.269723010566e+01 
6.221533902969e+01 3.271219618431e+01 
6.224692584895e+01 3.269718414559e+01 
6.229506707754e+01 3.271215245301e+01 
6.232909438159e+01 3.269713870351e+01 
6.237399784285e+01 3.271210921268e+01 
6.241044122952e+01 3.269709377308e+01 
6.245213929876e+01 3.271206645736e+01 
6.249097461024e+01 3.269704934805e+01 
6.252949934018e+01 3.271202418114e+01 
6.257070265809e+01 3.269700542225e+01 
6.260608578277e+01 3.271198237821e+01 
6.264963342340e+01 3.269696198960e+01 
6.268190636188e+01 3.271194104284e+01 
6.272777487931e+01 3.269691904409e+01 
6.275696873420e+01 3.271190016936e+01 
6.280513492073e+01 3.269687657981e+01 
6.283128048186e+01 3.271185975220e+01 
6.288172136331e+01 3.269683459092e+01 
6.290484911397e+01 3.271181978583e+01 
6.295754194243e+01 3.269679307165e+01 
6.303260431475e+01 3.269675201632e+01 
6.310691606241e+01 3.269671141933e+01 
6.318048469452e+01 3.269667127513e+01 
