 TITLE = "Profiles along polylines"
 VARIABLES = "DIST" "HEAD" 
 ZONE T="TIME=0.000000000000e+00"
3.702578511746e+00 0.000000000000e+00 
3.735437410799e+00 0.000000000000e+00 
3.768395707455e+00 0.000000000000e+00 
4.125411456011e+00 0.000000000000e+00 
4.158270355065e+00 0.000000000000e+00 
4.191228651721e+00 0.000000000000e+00 
4.544016073151e+00 0.000000000000e+00 
4.576874972204e+00 0.000000000000e+00 
4.609833268860e+00 0.000000000000e+00 
4.958434643021e+00 0.000000000000e+00 
4.991293542074e+00 0.000000000000e+00 
5.024251838730e+00 0.000000000000e+00 
5.368709027040e+00 0.000000000000e+00 
5.401567926094e+00 0.000000000000e+00 
5.434526222749e+00 0.000000000000e+00 
5.774880668693e+00 0.000000000000e+00 
5.807739567747e+00 0.000000000000e+00 
5.840697864402e+00 0.000000000000e+00 
6.176990594115e+00 0.000000000000e+00 
6.209849493169e+00 0.000000000000e+00 
6.242807789824e+00 0.000000000000e+00 
6.575079420364e+00 0.000000000000e+00 
6.607938319417e+00 0.000000000000e+00 
6.640896616073e+00 0.000000000000e+00 
6.969187358377e+00 0.000000000000e+00 
7.002046257430e+00 0.000000000000e+00 
7.035004554086e+00 0.000000000000e+00 
7.359354215858e+00 0.000000000000e+00 
7.392213114912e+00 0.000000000000e+00 
7.425171411568e+00 0.000000000000e+00 
7.745619402718e+00 0.000000000000e+00 
7.778478301771e+00 0.000000000000e+00 
7.811436598427e+00 0.000000000000e+00 
8.128021939010e+00 0.000000000000e+00 
8.160880838064e+00 0.000000000000e+00 
8.193839134719e+00 0.000000000000e+00 
8.506600449648e+00 0.000000000000e+00 
8.539459348702e+00 0.000000000000e+00 
8.572417645358e+00 0.000000000000e+00 
8.881393174993e+00 0.000000000000e+00 
8.914252074047e+00 0.000000000000e+00 
8.947210370702e+00 0.000000000000e+00 
9.252437973138e+00 0.000000000000e+00 
9.285296872192e+00 0.000000000000e+00 
9.318255168848e+00 0.000000000000e+00 
9.619772322510e+00 0.000000000000e+00 
9.652631221564e+00 0.000000000000e+00 
9.685589518220e+00 0.000000000000e+00 
9.983433329272e+00 0.000000000000e+00 
1.001629222833e+01 0.000000000000e+00 
1.004925052498e+01 0.000000000000e+00 
1.034345772445e+01 0.000000000000e+00 
1.037631662350e+01 0.000000000000e+00 
1.040927492016e+01 0.000000000000e+00 
1.069988187656e+01 0.000000000000e+00 
1.073274077561e+01 0.000000000000e+00 
1.076569907227e+01 0.000000000000e+00 
1.105274178842e+01 0.000000000000e+00 
1.108560068747e+01 0.000000000000e+00 
1.111855898413e+01 0.000000000000e+00 
1.140207310189e+01 0.000000000000e+00 
1.143493200095e+01 0.000000000000e+00 
1.146789029760e+01 0.000000000000e+00 
1.174791110238e+01 0.000000000000e+00 
1.178077000144e+01 0.000000000000e+00 
1.181372829809e+01 0.000000000000e+00 
1.209029072082e+01 0.000000000000e+00 
1.212314961987e+01 0.000000000000e+00 
1.215610791653e+01 0.000000000000e+00 
1.242924654326e+01 0.000000000000e+00 
1.246210544232e+01 0.000000000000e+00 
1.249506373897e+01 0.000000000000e+00 
1.276481280740e+01 0.000000000000e+00 
1.279767170645e+01 0.000000000000e+00 
1.283063000311e+01 0.000000000000e+00 
1.309702340950e+01 0.000000000000e+00 
1.312988230856e+01 0.000000000000e+00 
1.316284060521e+01 0.000000000000e+00 
1.342591190599e+01 0.000000000000e+00 
1.345877080504e+01 0.000000000000e+00 
1.349172910170e+01 0.000000000000e+00 
1.375151151764e+01 0.000000000000e+00 
1.378437041669e+01 0.000000000000e+00 
1.381732871335e+01 0.000000000000e+00 
1.407385513362e+01 0.000000000000e+00 
1.410671403268e+01 0.000000000000e+00 
1.413967232933e+01 0.000000000000e+00 
1.439297531297e+01 0.000000000000e+00 
1.442583421203e+01 0.000000000000e+00 
1.445879250868e+01 0.000000000000e+00 
1.470890429109e+01 0.000000000000e+00 
1.474176319014e+01 0.000000000000e+00 
1.477472148680e+01 0.000000000000e+00 
1.502167397844e+01 0.000000000000e+00 
1.505453287749e+01 0.000000000000e+00 
1.508749117415e+01 0.000000000000e+00 
1.533131596963e+01 0.000000000000e+00 
1.536417486868e+01 0.000000000000e+00 
1.539713316534e+01 0.000000000000e+00 
1.563786154185e+01 0.000000000000e+00 
1.567072044090e+01 0.000000000000e+00 
1.570367873756e+01 0.000000000000e+00 
1.594134165605e+01 0.000000000000e+00 
1.597420055510e+01 0.000000000000e+00 
1.600715885176e+01 0.000000000000e+00 
1.624178696841e+01 0.000000000000e+00 
1.627464586747e+01 0.000000000000e+00 
1.630760416412e+01 0.000000000000e+00 
1.653922782863e+01 0.000000000000e+00 
1.657208672768e+01 0.000000000000e+00 
1.660504502434e+01 0.000000000000e+00 
1.683369428081e+01 0.000000000000e+00 
1.686655317987e+01 0.000000000000e+00 
1.689951147652e+01 0.000000000000e+00 
1.712521606959e+01 0.000000000000e+00 
1.715807496864e+01 0.000000000000e+00 
1.719103326530e+01 0.000000000000e+00 
1.741382264085e+01 0.000000000000e+00 
1.744668153990e+01 0.000000000000e+00 
1.747963983656e+01 0.000000000000e+00 
1.769954314509e+01 0.000000000000e+00 
1.773240204414e+01 0.000000000000e+00 
1.776536034080e+01 0.000000000000e+00 
1.798240644332e+01 0.000000000000e+00 
1.801526534237e+01 0.000000000000e+00 
1.804822363903e+01 0.000000000000e+00 
1.826244110759e+01 0.000000000000e+00 
1.829530000665e+01 0.000000000000e+00 
1.832825830330e+01 0.000000000000e+00 
1.853967542423e+01 0.000000000000e+00 
1.857253432328e+01 0.000000000000e+00 
1.860549261994e+01 0.000000000000e+00 
1.881413739944e+01 0.000000000000e+00 
1.884699629850e+01 0.000000000000e+00 
1.887995459515e+01 0.000000000000e+00 
1.908585475717e+01 0.000000000000e+00 
1.911871365623e+01 0.000000000000e+00 
1.915167195288e+01 0.000000000000e+00 
1.935485494209e+01 0.000000000000e+00 
1.938771384114e+01 0.000000000000e+00 
1.942067213780e+01 0.000000000000e+00 
1.962116512512e+01 0.000000000000e+00 
1.965402402417e+01 0.000000000000e+00 
1.968698232083e+01 0.000000000000e+00 
1.988481220373e+01 0.000000000000e+00 
1.991767110278e+01 0.000000000000e+00 
1.995062939944e+01 0.000000000000e+00 
2.014582280998e+01 0.000000000000e+00 
2.017868170903e+01 0.000000000000e+00 
2.021164000569e+01 0.000000000000e+00 
2.040422331056e+01 0.000000000000e+00 
2.043708220962e+01 0.000000000000e+00 
2.047004050627e+01 0.000000000000e+00 
2.066003980700e+01 0.000000000000e+00 
2.069289870605e+01 0.000000000000e+00 
2.072585700271e+01 0.000000000000e+00 
2.091329813819e+01 0.000000000000e+00 
2.094615703725e+01 0.000000000000e+00 
2.097911533390e+01 0.000000000000e+00 
2.116402388578e+01 0.000000000000e+00 
2.119688278483e+01 0.000000000000e+00 
2.122984108149e+01 0.000000000000e+00 
2.141224237654e+01 0.000000000000e+00 
2.144510127560e+01 0.000000000000e+00 
2.147805957225e+01 0.000000000000e+00 
2.165797868238e+01 0.000000000000e+00 
2.169083758144e+01 0.000000000000e+00 
2.172379587809e+01 0.000000000000e+00 
2.190125762531e+01 0.000000000000e+00 
2.193411652437e+01 0.000000000000e+00 
2.196707482102e+01 0.000000000000e+00 
2.214210377992e+01 0.000000000000e+00 
2.217496267898e+01 0.000000000000e+00 
2.220792097563e+01 0.000000000000e+00 
2.238054147301e+01 0.000000000000e+00 
2.241340037206e+01 0.000000000000e+00 
2.244635866872e+01 0.000000000000e+00 
2.261659478862e+01 0.000000000000e+00 
2.264945368767e+01 0.000000000000e+00 
2.268241198433e+01 0.000000000000e+00 
2.285028757017e+01 0.000000000000e+00 
2.288314646922e+01 0.000000000000e+00 
2.291610476588e+01 0.000000000000e+00 
2.308164342274e+01 0.000000000000e+00 
2.311450232179e+01 0.000000000000e+00 
2.314746061845e+01 0.000000000000e+00 
2.331068571776e+01 0.000000000000e+00 
2.334354461682e+01 0.000000000000e+00 
2.337650291347e+01 0.000000000000e+00 
2.353743758992e+01 0.000000000000e+00 
2.357029648897e+01 0.000000000000e+00 
2.360325478563e+01 0.000000000000e+00 
2.376192194443e+01 0.000000000000e+00 
2.379478084349e+01 0.000000000000e+00 
2.382773914014e+01 0.000000000000e+00 
2.398416145643e+01 0.000000000000e+00 
2.401702035548e+01 0.000000000000e+00 
2.404997865214e+01 0.000000000000e+00 
2.420417857295e+01 0.000000000000e+00 
2.423703747200e+01 0.000000000000e+00 
2.426999576866e+01 0.000000000000e+00 
2.442199551746e+01 0.000000000000e+00 
2.445485441651e+01 0.000000000000e+00 
2.448781271316e+01 0.000000000000e+00 
2.463763429171e+01 0.000000000000e+00 
2.467049319076e+01 0.000000000000e+00 
2.470345148742e+01 0.000000000000e+00 
2.485111667756e+01 0.000000000000e+00 
2.488397557662e+01 0.000000000000e+00 
2.491693387327e+01 0.000000000000e+00 
2.506246423879e+01 0.000000000000e+00 
2.509532313784e+01 0.000000000000e+00 
2.512828143450e+01 0.000000000000e+00 
2.527169832539e+01 0.000000000000e+00 
2.530455722444e+01 0.000000000000e+00 
2.533751552110e+01 0.000000000000e+00 
2.547884007267e+01 0.000000000000e+00 
2.551169897172e+01 0.000000000000e+00 
2.554465726838e+01 0.000000000000e+00 
2.568391040291e+01 0.000000000000e+00 
2.571676930196e+01 0.000000000000e+00 
2.574972759862e+01 0.000000000000e+00 
2.588693002960e+01 0.000000000000e+00 
2.591978892865e+01 0.000000000000e+00 
2.595274722531e+01 0.000000000000e+00 
2.608791945899e+01 0.000000000000e+00 
2.612077835804e+01 0.000000000000e+00 
2.615373665470e+01 0.000000000000e+00 
2.628689899425e+01 0.000000000000e+00 
2.631975789331e+01 0.000000000000e+00 
2.635271618996e+01 0.000000000000e+00 
2.648388873429e+01 0.000000000000e+00 
2.651674763334e+01 0.000000000000e+00 
2.654970593000e+01 0.000000000000e+00 
2.667890857781e+01 0.000000000000e+00 
2.671176747687e+01 0.000000000000e+00 
2.674472577352e+01 0.000000000000e+00 
2.687197822479e+01 0.000000000000e+00 
2.690483712384e+01 0.000000000000e+00 
2.693779542050e+01 0.000000000000e+00 
2.706311717521e+01 0.000000000000e+00 
2.709597607427e+01 0.000000000000e+00 
2.712893437092e+01 0.000000000000e+00 
2.725234473540e+01 0.000000000000e+00 
2.728520363445e+01 0.000000000000e+00 
2.731816193110e+01 0.000000000000e+00 
2.743968001964e+01 0.000000000000e+00 
2.747253891870e+01 0.000000000000e+00 
2.750549721535e+01 0.000000000000e+00 
2.762514195124e+01 0.000000000000e+00 
2.765800085030e+01 0.000000000000e+00 
2.769095914695e+01 0.000000000000e+00 
2.780874926371e+01 0.000000000000e+00 
2.784160816276e+01 0.000000000000e+00 
2.787456645942e+01 0.000000000000e+00 
2.799052050198e+01 0.000000000000e+00 
2.802337940104e+01 0.000000000000e+00 
2.805633769769e+01 0.000000000000e+00 
2.817047402617e+01 0.000000000000e+00 
2.820333292522e+01 0.000000000000e+00 
2.823629122188e+01 0.000000000000e+00 
2.834862801523e+01 0.000000000000e+00 
2.838148691428e+01 0.000000000000e+00 
2.841444521094e+01 0.000000000000e+00 
2.852500046539e+01 0.000000000000e+00 
2.855785936444e+01 0.000000000000e+00 
2.859081766110e+01 0.000000000000e+00 
2.869960919120e+01 0.000000000000e+00 
2.873246809025e+01 0.000000000000e+00 
2.876542638691e+01 0.000000000000e+00 
2.887247182911e+01 0.000000000000e+00 
2.890533072817e+01 0.000000000000e+00 
2.893828902482e+01 0.000000000000e+00 
2.904360584107e+01 0.000000000000e+00 
2.907646474013e+01 0.000000000000e+00 
2.910942303678e+01 0.000000000000e+00 
2.921302851274e+01 0.000000000000e+00 
2.924588741179e+01 0.000000000000e+00 
2.927884570845e+01 0.000000000000e+00 
2.938075695707e+01 0.000000000000e+00 
2.941361585612e+01 0.000000000000e+00 
2.944657415278e+01 0.000000000000e+00 
2.954680811769e+01 0.000000000000e+00 
2.957966701674e+01 0.000000000000e+00 
2.961262531340e+01 0.000000000000e+00 
2.971119876711e+01 0.000000000000e+00 
2.974405766617e+01 0.000000000000e+00 
2.977701596282e+01 0.000000000000e+00 
2.987394551014e+01 0.000000000000e+00 
2.990680440919e+01 0.000000000000e+00 
2.993976270585e+01 0.000000000000e+00 
3.003506478457e+01 0.000000000000e+00 
3.006792368362e+01 0.000000000000e+00 
3.010088198028e+01 0.000000000000e+00 
3.019457286719e+01 0.000000000000e+00 
3.022743176624e+01 0.000000000000e+00 
3.026039006290e+01 0.000000000000e+00 
3.035248586908e+01 0.000000000000e+00 
3.038534476813e+01 0.000000000000e+00 
3.041830306479e+01 0.000000000000e+00 
3.050881973905e+01 0.000000000000e+00 
3.054167863811e+01 0.000000000000e+00 
3.057463693476e+01 0.000000000000e+00 
3.066359027196e+01 0.000000000000e+00 
3.069644917102e+01 0.000000000000e+00 
3.072940746767e+01 0.000000000000e+00 
3.081681310143e+01 0.000000000000e+00 
3.084967200049e+01 0.000000000000e+00 
3.088263029714e+01 0.000000000000e+00 
3.096850370308e+01 0.000000000000e+00 
3.100136260213e+01 0.000000000000e+00 
3.103432089879e+01 0.000000000000e+00 
3.111867739760e+01 0.000000000000e+00 
3.115153629666e+01 0.000000000000e+00 
3.118449459331e+01 0.000000000000e+00 
3.126734935392e+01 0.000000000000e+00 
3.130020825297e+01 0.000000000000e+00 
3.133316654963e+01 0.000000000000e+00 
3.141453458954e+01 0.000000000000e+00 
3.144739348859e+01 0.000000000000e+00 
3.148035178525e+01 0.000000000000e+00 
3.156024797366e+01 0.000000000000e+00 
3.159310687271e+01 0.000000000000e+00 
3.162606516937e+01 0.000000000000e+00 
3.170450422483e+01 0.000000000000e+00 
3.173736312388e+01 0.000000000000e+00 
3.177032142054e+01 0.000000000000e+00 
3.184731791144e+01 0.000000000000e+00 
3.188017681050e+01 0.000000000000e+00 
3.191313510715e+01 0.000000000000e+00 
3.198870346247e+01 0.000000000000e+00 
3.202156236152e+01 0.000000000000e+00 
3.205452065818e+01 0.000000000000e+00 
3.212867515982e+01 0.000000000000e+00 
3.216153405887e+01 0.000000000000e+00 
3.219449235553e+01 0.000000000000e+00 
3.226724713874e+01 0.000000000000e+00 
3.230010603779e+01 0.000000000000e+00 
3.233306433444e+01 0.000000000000e+00 
3.240443339847e+01 0.000000000000e+00 
3.243729229752e+01 0.000000000000e+00 
3.247025059418e+01 0.000000000000e+00 
3.254024779717e+01 0.000000000000e+00 
3.257310669622e+01 0.000000000000e+00 
3.260606499288e+01 0.000000000000e+00 
3.267470404955e+01 0.000000000000e+00 
3.270756294860e+01 0.000000000000e+00 
3.274052124526e+01 0.000000000000e+00 
3.280781573751e+01 0.000000000000e+00 
3.284067463656e+01 0.000000000000e+00 
3.287363293322e+01 0.000000000000e+00 
3.293959631017e+01 0.000000000000e+00 
3.297245520922e+01 0.000000000000e+00 
3.300541350588e+01 0.000000000000e+00 
3.307005907877e+01 0.000000000000e+00 
3.310291797782e+01 0.000000000000e+00 
3.313587627448e+01 0.000000000000e+00 
3.319921721937e+01 0.000000000000e+00 
3.323207611842e+01 0.000000000000e+00 
3.326503441508e+01 0.000000000000e+00 
3.332708377816e+01 0.000000000000e+00 
3.335994267721e+01 0.000000000000e+00 
3.339290097387e+01 0.000000000000e+00 
3.345367167142e+01 0.000000000000e+00 
3.348653057047e+01 0.000000000000e+00 
3.351948886713e+01 0.000000000000e+00 
3.357899368556e+01 0.000000000000e+00 
3.361185258461e+01 0.000000000000e+00 
3.364481088127e+01 0.000000000000e+00 
3.370306247965e+01 0.000000000000e+00 
3.373592137870e+01 0.000000000000e+00 
3.376887967536e+01 0.000000000000e+00 
3.382589058539e+01 0.000000000000e+00 
3.385874948444e+01 0.000000000000e+00 
3.389170778110e+01 0.000000000000e+00 
3.394749040965e+01 0.000000000000e+00 
3.398034930871e+01 0.000000000000e+00 
3.401330760536e+01 0.000000000000e+00 
3.406787423695e+01 0.000000000000e+00 
3.410073313601e+01 0.000000000000e+00 
3.413369143266e+01 0.000000000000e+00 
3.418705422668e+01 0.000000000000e+00 
3.421991312574e+01 0.000000000000e+00 
3.425287142239e+01 0.000000000000e+00 
3.430504241563e+01 0.000000000000e+00 
3.433790131469e+01 0.000000000000e+00 
3.437085961134e+01 0.000000000000e+00 
3.442185072300e+01 0.000000000000e+00 
3.445470962205e+01 0.000000000000e+00 
3.448766791871e+01 0.000000000000e+00 
3.453749094752e+01 0.000000000000e+00 
3.457034984658e+01 0.000000000000e+00 
3.460330814323e+01 0.000000000000e+00 
3.465197476995e+01 0.000000000000e+00 
3.468483366900e+01 0.000000000000e+00 
3.471779196566e+01 0.000000000000e+00 
3.476531375268e+01 0.000000000000e+00 
3.479817265173e+01 0.000000000000e+00 
3.483113094839e+01 0.000000000000e+00 
3.487751934483e+01 0.000000000000e+00 
3.491037824389e+01 0.000000000000e+00 
3.494333654054e+01 0.000000000000e+00 
3.498860288182e+01 0.000000000000e+00 
3.502146178087e+01 0.000000000000e+00 
3.505442007752e+01 0.000000000000e+00 
3.509857558246e+01 0.000000000000e+00 
3.513143448151e+01 0.000000000000e+00 
3.516439277816e+01 0.000000000000e+00 
3.520744855649e+01 0.000000000000e+00 
3.524030745554e+01 0.000000000000e+00 
3.527326575220e+01 0.000000000000e+00 
3.531523280153e+01 0.000000000000e+00 
3.534809170059e+01 0.000000000000e+00 
3.538104999724e+01 0.000000000000e+00 
3.542193920273e+01 0.000000000000e+00 
3.545479810179e+01 0.000000000000e+00 
3.548775639844e+01 0.000000000000e+00 
3.552757854020e+01 0.000000000000e+00 
3.556043743925e+01 0.000000000000e+00 
3.559339573591e+01 0.000000000000e+00 
3.563216148587e+01 0.000000000000e+00 
3.566502038493e+01 0.000000000000e+00 
3.569797868158e+01 0.000000000000e+00 
3.573569860053e+01 0.000000000000e+00 
3.576855749958e+01 0.000000000000e+00 
3.580151579624e+01 0.000000000000e+00 
3.583820034377e+01 0.000000000000e+00 
3.587105924283e+01 0.000000000000e+00 
3.590401753948e+01 0.000000000000e+00 
3.593967707080e+01 0.000000000000e+00 
3.597253596986e+01 0.000000000000e+00 
3.600549426651e+01 0.000000000000e+00 
3.604013902938e+01 0.000000000000e+00 
3.607299792844e+01 0.000000000000e+00 
3.610595622509e+01 0.000000000000e+00 
3.613959636972e+01 0.000000000000e+00 
3.617245526878e+01 0.000000000000e+00 
3.620541356543e+01 0.000000000000e+00 
3.623805913862e+01 0.000000000000e+00 
3.627091803768e+01 0.000000000000e+00 
3.630387633433e+01 0.000000000000e+00 
3.633553727897e+01 0.000000000000e+00 
3.636839617802e+01 0.000000000000e+00 
3.640135447468e+01 0.000000000000e+00 
3.643204063695e+01 0.000000000000e+00 
3.646489953600e+01 0.000000000000e+00 
3.649785783266e+01 0.000000000000e+00 
3.652757896143e+01 0.000000000000e+00 
3.656043786048e+01 0.000000000000e+00 
3.659339615713e+01 0.000000000000e+00 
3.662216190324e+01 0.000000000000e+00 
3.665502080230e+01 0.000000000000e+00 
3.668797909895e+01 0.000000000000e+00 
3.671579901460e+01 0.000000000000e+00 
3.674865791366e+01 0.000000000000e+00 
3.678161621031e+01 0.000000000000e+00 
3.680849975362e+01 0.000000000000e+00 
3.684135865267e+01 0.000000000000e+00 
3.687431694933e+01 0.000000000000e+00 
3.690027348620e+01 0.000000000000e+00 
3.693313238525e+01 0.000000000000e+00 
3.696609068191e+01 0.000000000000e+00 
3.699112948267e+01 0.000000000000e+00 
3.702398838172e+01 0.000000000000e+00 
3.705694667838e+01 0.000000000000e+00 
3.708107691970e+01 0.000000000000e+00 
3.711393581876e+01 0.000000000000e+00 
3.714689411541e+01 0.000000000000e+00 
3.717012488216e+01 0.000000000000e+00 
3.720298378122e+01 0.000000000000e+00 
3.723594207787e+01 0.000000000000e+00 
3.725828236493e+01 0.000000000000e+00 
3.729114126398e+01 0.000000000000e+00 
3.732409956064e+01 0.000000000000e+00 
3.734555827209e+01 0.000000000000e+00 
3.737841717114e+01 0.000000000000e+00 
3.741137546780e+01 0.000000000000e+00 
3.743196141876e+01 0.000000000000e+00 
3.746482031781e+01 0.000000000000e+00 
3.749777861447e+01 0.000000000000e+00 
3.751750053546e+01 0.000000000000e+00 
3.755035943452e+01 0.000000000000e+00 
3.758331773117e+01 0.000000000000e+00 
3.760218426199e+01 0.000000000000e+00 
3.763504316105e+01 0.000000000000e+00 
3.766800145770e+01 0.000000000000e+00 
3.768602114925e+01 0.000000000000e+00 
3.771888004830e+01 0.000000000000e+00 
3.775183834496e+01 0.000000000000e+00 
3.776901966618e+01 0.000000000000e+00 
3.780187856523e+01 0.000000000000e+00 
3.783483686189e+01 0.000000000000e+00 
3.785118819882e+01 0.000000000000e+00 
3.788404709787e+01 0.000000000000e+00 
3.791700539453e+01 0.000000000000e+00 
3.793253504675e+01 0.000000000000e+00 
3.796539394581e+01 0.000000000000e+00 
3.799835224246e+01 0.000000000000e+00 
3.801306842747e+01 0.000000000000e+00 
3.804592732652e+01 0.000000000000e+00 
3.807888562318e+01 0.000000000000e+00 
3.809279647532e+01 0.000000000000e+00 
3.812565537437e+01 0.000000000000e+00 
3.815861367103e+01 0.000000000000e+00 
3.817172724063e+01 0.000000000000e+00 
3.820458613968e+01 0.000000000000e+00 
3.823754443633e+01 0.000000000000e+00 
3.824986869654e+01 0.000000000000e+00 
3.828272759559e+01 0.000000000000e+00 
3.831568589224e+01 0.000000000000e+00 
3.832722873796e+01 0.000000000000e+00 
3.836008763701e+01 0.000000000000e+00 
3.839304593366e+01 0.000000000000e+00 
3.840381518054e+01 0.000000000000e+00 
3.843667407960e+01 0.000000000000e+00 
3.846963237625e+01 0.000000000000e+00 
3.847963575966e+01 0.000000000000e+00 
3.851249465871e+01 0.000000000000e+00 
3.854545295537e+01 0.000000000000e+00 
3.855469813198e+01 0.000000000000e+00 
3.858755703103e+01 0.000000000000e+00 
3.862051532769e+01 0.000000000000e+00 
3.862900987964e+01 0.000000000000e+00 
3.866186877869e+01 0.000000000000e+00 
3.869482707535e+01 0.000000000000e+00 
3.870257851175e+01 0.000000000000e+00 
3.873543741080e+01 0.000000000000e+00 
3.876839570746e+01 0.000000000000e+00 
 TITLE = "Profiles along polylines"
 VARIABLES = "DIST" "HEAD" 
 ZONE T="TIME=1.797693134862e+308"
3.702578511746e+00 3.434046881223e+01 
3.735437410799e+00 3.433879266039e+01 
3.768395707455e+00 3.433709655612e+01 
4.125411456011e+00 3.434032935416e+01 
4.158270355065e+00 3.433865308325e+01 
4.191228651721e+00 3.433695685954e+01 
4.544016073151e+00 3.434019279849e+01 
4.576874972204e+00 3.433851640970e+01 
4.609833268860e+00 3.433682006776e+01 
4.958434643021e+00 3.434005908688e+01 
4.991293542074e+00 3.433838258139e+01 
5.024251838730e+00 3.433668612239e+01 
5.368709027040e+00 3.433992816150e+01 
5.401567926094e+00 3.433825154046e+01 
5.434526222749e+00 3.433655496557e+01 
5.774880668693e+00 3.433979996551e+01 
5.807739567747e+00 3.433812323010e+01 
5.840697864402e+00 3.433642654047e+01 
6.176990594115e+00 3.433967444329e+01 
6.209849493169e+00 3.433799759463e+01 
6.242807789824e+00 3.433630079142e+01 
6.575079420364e+00 3.433955154033e+01 
6.607938319417e+00 3.433787457956e+01 
6.640896616073e+00 3.433617766390e+01 
6.969187358377e+00 3.433943120326e+01 
7.002046257430e+00 3.433775413150e+01 
7.035004554086e+00 3.433605710451e+01 
7.359354215858e+00 3.433931337979e+01 
7.392213114912e+00 3.433763619815e+01 
7.425171411568e+00 3.433593906095e+01 
7.745619402718e+00 3.433919801871e+01 
7.778478301771e+00 3.433752072829e+01 
7.811436598427e+00 3.433582348198e+01 
8.128021939010e+00 3.433908506982e+01 
8.160880838064e+00 3.433740767170e+01 
8.193839134719e+00 3.433571031737e+01 
8.506600449648e+00 3.433897448395e+01 
8.539459348702e+00 3.433729697922e+01 
8.572417645358e+00 3.433559951795e+01 
8.881393174993e+00 3.433886621292e+01 
8.914252074047e+00 3.433718860264e+01 
8.947210370702e+00 3.433549103550e+01 
9.252437973138e+00 3.433876020952e+01 
9.285296872192e+00 3.433708249474e+01 
9.318255168848e+00 3.433538482279e+01 
9.619772322510e+00 3.433865642749e+01 
9.652631221564e+00 3.433697860927e+01 
9.685589518220e+00 3.433528083355e+01 
9.983433329272e+00 3.433855482152e+01 
1.001629222833e+01 3.433687690087e+01 
1.004925052498e+01 3.433517902243e+01 
1.034345772445e+01 3.433845534717e+01 
1.037631662350e+01 3.433677732514e+01 
1.040927492016e+01 3.433507934500e+01 
1.069988187656e+01 3.433835796095e+01 
1.073274077561e+01 3.433667983854e+01 
1.076569907227e+01 3.433498175772e+01 
1.105274178842e+01 3.433826262021e+01 
1.108560068747e+01 3.433658439843e+01 
1.111855898413e+01 3.433488621793e+01 
1.140207310189e+01 3.433816928316e+01 
1.143493200095e+01 3.433649096300e+01 
1.146789029760e+01 3.433479268383e+01 
1.174791110238e+01 3.433807790888e+01 
1.178077000144e+01 3.433639949132e+01 
1.181372829809e+01 3.433470111446e+01 
1.209029072082e+01 3.433798845725e+01 
1.212314961987e+01 3.433630994327e+01 
1.215610791653e+01 3.433461146969e+01 
1.242924654326e+01 3.433790088896e+01 
1.246210544232e+01 3.433622227952e+01 
1.249506373897e+01 3.433452371019e+01 
1.276481280740e+01 3.433781516550e+01 
1.279767170645e+01 3.433613646156e+01 
1.283063000311e+01 3.433443779744e+01 
1.309702340950e+01 3.433773124914e+01 
1.312988230856e+01 3.433605245164e+01 
1.316284060521e+01 3.433435369368e+01 
1.342591190599e+01 3.433764910291e+01 
1.345877080504e+01 3.433597021278e+01 
1.349172910170e+01 3.433427136192e+01 
1.375151151764e+01 3.433756869057e+01 
1.378437041669e+01 3.433588970875e+01 
1.381732871335e+01 3.433419076591e+01 
1.407385513362e+01 3.433748997663e+01 
1.410671403268e+01 3.433581090403e+01 
1.413967232933e+01 3.433411187014e+01 
1.439297531297e+01 3.433741292632e+01 
1.442583421203e+01 3.433573376384e+01 
1.445879250868e+01 3.433403463981e+01 
1.470890429109e+01 3.433733750554e+01 
1.474176319014e+01 3.433565825409e+01 
1.477472148680e+01 3.433395904082e+01 
1.502167397844e+01 3.433726368092e+01 
1.505453287749e+01 3.433558434139e+01 
1.508749117415e+01 3.433388503976e+01 
1.533131596963e+01 3.433719141973e+01 
1.536417486868e+01 3.433551199300e+01 
1.539713316534e+01 3.433381260390e+01 
1.563786154185e+01 3.433712068992e+01 
1.567072044090e+01 3.433544117686e+01 
1.570367873756e+01 3.433374170117e+01 
1.594134165605e+01 3.433705146008e+01 
1.597420055510e+01 3.433537186155e+01 
1.600715885176e+01 3.433367230014e+01 
1.624178696841e+01 3.433698369944e+01 
1.627464586747e+01 3.433530401630e+01 
1.630760416412e+01 3.433360437001e+01 
1.653922782863e+01 3.433691737784e+01 
1.657208672768e+01 3.433523761093e+01 
1.660504502434e+01 3.433353788063e+01 
1.683369428081e+01 3.433685246574e+01 
1.686655317987e+01 3.433517261591e+01 
1.689951147652e+01 3.433347280242e+01 
1.712521606959e+01 3.433678893420e+01 
1.715807496864e+01 3.433510900226e+01 
1.719103326530e+01 3.433340910643e+01 
1.741382264085e+01 3.433672675485e+01 
1.744668153990e+01 3.433504674163e+01 
1.747963983656e+01 3.433334676428e+01 
1.769954314509e+01 3.433666589991e+01 
1.773240204414e+01 3.433498580622e+01 
1.776536034080e+01 3.433328574816e+01 
1.798240644332e+01 3.433660634214e+01 
1.801526534237e+01 3.433492616880e+01 
1.804822363903e+01 3.433322603083e+01 
1.826244110759e+01 3.433654805488e+01 
1.829530000665e+01 3.433486780267e+01 
1.832825830330e+01 3.433316758560e+01 
1.853967542423e+01 3.433649101199e+01 
1.857253432328e+01 3.433481068170e+01 
1.860549261994e+01 3.433311038632e+01 
1.881413739944e+01 3.433643518786e+01 
1.884699629850e+01 3.433475478028e+01 
1.887995459515e+01 3.433305440736e+01 
1.908585475717e+01 3.433638055739e+01 
1.911871365623e+01 3.433470007329e+01 
1.915167195288e+01 3.433299962362e+01 
1.935485494209e+01 3.433632709602e+01 
1.938771384114e+01 3.433464653616e+01 
1.942067213780e+01 3.433294601050e+01 
1.962116512512e+01 3.433627477964e+01 
1.965402402417e+01 3.433459414478e+01 
1.968698232083e+01 3.433289354390e+01 
1.988481220373e+01 3.433622358468e+01 
1.991767110278e+01 3.433454287557e+01 
1.995062939944e+01 3.433284220021e+01 
2.014582280998e+01 3.433617348800e+01 
2.017868170903e+01 3.433449270538e+01 
2.021164000569e+01 3.433279195630e+01 
2.040422331056e+01 3.433612446696e+01 
2.043708220962e+01 3.433444361157e+01 
2.047004050627e+01 3.433274278949e+01 
2.066003980700e+01 3.433607649936e+01 
2.069289870605e+01 3.433439557193e+01 
2.072585700271e+01 3.433269467759e+01 
2.091329813819e+01 3.433602956347e+01 
2.094615703725e+01 3.433434856471e+01 
2.097911533390e+01 3.433264759883e+01 
2.116402388578e+01 3.433598363797e+01 
2.119688278483e+01 3.433430256860e+01 
2.122984108149e+01 3.433260153190e+01 
2.141224237654e+01 3.433593870200e+01 
2.144510127560e+01 3.433425756273e+01 
2.147805957225e+01 3.433255645591e+01 
2.165797868238e+01 3.433589473511e+01 
2.169083758144e+01 3.433421352663e+01 
2.172379587809e+01 3.433251235040e+01 
2.190125762531e+01 3.433585171727e+01 
2.193411652437e+01 3.433417044027e+01 
2.196707482102e+01 3.433246919532e+01 
2.214210377992e+01 3.433580962884e+01 
2.217496267898e+01 3.433412828402e+01 
2.220792097563e+01 3.433242697103e+01 
2.238054147301e+01 3.433576845061e+01 
2.241340037206e+01 3.433408703864e+01 
2.244635866872e+01 3.433238565829e+01 
2.261659478862e+01 3.433572816372e+01 
2.264945368767e+01 3.433404668528e+01 
2.268241198433e+01 3.433234523825e+01 
2.285028757017e+01 3.433568874973e+01 
2.288314646922e+01 3.433400720547e+01 
2.291610476588e+01 3.433230569244e+01 
2.308164342274e+01 3.433565019056e+01 
2.311450232179e+01 3.433396858114e+01 
2.314746061845e+01 3.433226700275e+01 
2.331068571776e+01 3.433561246847e+01 
2.334354461682e+01 3.433393079455e+01 
2.337650291347e+01 3.433222915146e+01 
2.353743758992e+01 3.433557556613e+01 
2.357029648897e+01 3.433389382835e+01 
2.360325478563e+01 3.433219212121e+01 
2.376192194443e+01 3.433553946653e+01 
2.379478084349e+01 3.433385766552e+01 
2.382773914014e+01 3.433215589497e+01 
2.398416145643e+01 3.433550415300e+01 
2.401702035548e+01 3.433382228941e+01 
2.404997865214e+01 3.433212045608e+01 
2.420417857295e+01 3.433546960922e+01 
2.423703747200e+01 3.433378768367e+01 
2.426999576866e+01 3.433208578819e+01 
2.442199551746e+01 3.433543581922e+01 
2.445485441651e+01 3.433375383233e+01 
2.448781271316e+01 3.433205187532e+01 
2.463763429171e+01 3.433540276733e+01 
2.467049319076e+01 3.433372071970e+01 
2.470345148742e+01 3.433201870178e+01 
2.485111667756e+01 3.433537043819e+01 
2.488397557662e+01 3.433368833045e+01 
2.491693387327e+01 3.433198625222e+01 
2.506246423879e+01 3.433533881678e+01 
2.509532313784e+01 3.433365664952e+01 
2.512828143450e+01 3.433195451159e+01 
2.527169832539e+01 3.433530788837e+01 
2.530455722444e+01 3.433362566218e+01 
2.533751552110e+01 3.433192346515e+01 
2.547884007267e+01 3.433527763853e+01 
2.551169897172e+01 3.433359535401e+01 
2.554465726838e+01 3.433189309846e+01 
2.568391040291e+01 3.433524805313e+01 
2.571676930196e+01 3.433356571085e+01 
2.574972759862e+01 3.433186339738e+01 
2.588693002960e+01 3.433521911832e+01 
2.591978892865e+01 3.433353671886e+01 
2.595274722531e+01 3.433183434805e+01 
2.608791945899e+01 3.433519082053e+01 
2.612077835804e+01 3.433350836447e+01 
2.615373665470e+01 3.433180593688e+01 
2.628689899425e+01 3.433516314648e+01 
2.631975789331e+01 3.433348063438e+01 
2.635271618996e+01 3.433177815058e+01 
2.648388873429e+01 3.433513608314e+01 
2.651674763334e+01 3.433345351557e+01 
2.654970593000e+01 3.433175097613e+01 
2.667890857781e+01 3.433510961777e+01 
2.671176747687e+01 3.433342699528e+01 