 TITLE = "Profiles along polylines"
 VARIABLES = "DIST" "HEAD" 
 ZONE T="TIME=0.000000000000e+00"
6.219613085635e+00 0.000000000000e+00 
6.260086594481e+00 0.000000000000e+00 
6.642446029901e+00 0.000000000000e+00 
6.682919538747e+00 0.000000000000e+00 
7.061050647040e+00 0.000000000000e+00 
7.101524155887e+00 0.000000000000e+00 
7.475469216910e+00 0.000000000000e+00 
7.515942725757e+00 0.000000000000e+00 
7.885743600930e+00 0.000000000000e+00 
7.926217109776e+00 0.000000000000e+00 
8.291915242583e+00 0.000000000000e+00 
8.332388751430e+00 0.000000000000e+00 
8.694025168005e+00 0.000000000000e+00 
8.734498676852e+00 0.000000000000e+00 
9.092113994254e+00 0.000000000000e+00 
9.132587503101e+00 0.000000000000e+00 
9.486221932267e+00 0.000000000000e+00 
9.526695441114e+00 0.000000000000e+00 
9.876388789749e+00 0.000000000000e+00 
9.916862298595e+00 0.000000000000e+00 
1.026265397661e+01 0.000000000000e+00 
1.030312748546e+01 0.000000000000e+00 
1.064505651290e+01 0.000000000000e+00 
1.068553002175e+01 0.000000000000e+00 
1.102363502354e+01 0.000000000000e+00 
1.106410853239e+01 0.000000000000e+00 
1.139842774888e+01 0.000000000000e+00 
1.143890125773e+01 0.000000000000e+00 
1.176947254703e+01 0.000000000000e+00 
1.180994605588e+01 0.000000000000e+00 
1.213680689640e+01 0.000000000000e+00 
1.217728040525e+01 0.000000000000e+00 
1.250046790316e+01 0.000000000000e+00 
1.254094141201e+01 0.000000000000e+00 
1.286049229834e+01 0.000000000000e+00 
1.290096580719e+01 0.000000000000e+00 
1.321691645045e+01 0.000000000000e+00 
1.325738995930e+01 0.000000000000e+00 
1.356977636231e+01 0.000000000000e+00 
1.361024987116e+01 0.000000000000e+00 
1.391910767578e+01 0.000000000000e+00 
1.395958118463e+01 0.000000000000e+00 
1.426494567628e+01 0.000000000000e+00 
1.430541918512e+01 0.000000000000e+00 
1.460732529471e+01 0.000000000000e+00 
1.464779880356e+01 0.000000000000e+00 
1.494628111716e+01 0.000000000000e+00 
1.498675462600e+01 0.000000000000e+00 
1.528184738129e+01 0.000000000000e+00 
1.532232089014e+01 0.000000000000e+00 
1.561405798340e+01 0.000000000000e+00 
1.565453149224e+01 0.000000000000e+00 
1.594294647988e+01 0.000000000000e+00 
1.598341998873e+01 0.000000000000e+00 
1.626854609153e+01 0.000000000000e+00 
1.630901960038e+01 0.000000000000e+00 
1.659088970752e+01 0.000000000000e+00 
1.663136321637e+01 0.000000000000e+00 
1.691000988687e+01 0.000000000000e+00 
1.695048339571e+01 0.000000000000e+00 
1.722593886498e+01 0.000000000000e+00 
1.726641237383e+01 0.000000000000e+00 
1.753870855234e+01 0.000000000000e+00 
1.757918206118e+01 0.000000000000e+00 
1.784835054352e+01 0.000000000000e+00 
1.788882405237e+01 0.000000000000e+00 
1.815489611574e+01 0.000000000000e+00 
1.819536962459e+01 0.000000000000e+00 
1.845837622994e+01 0.000000000000e+00 
1.849884973879e+01 0.000000000000e+00 
1.875882154231e+01 0.000000000000e+00 
1.879929505116e+01 0.000000000000e+00 
1.905626240252e+01 0.000000000000e+00 
1.909673591137e+01 0.000000000000e+00 
1.935072885471e+01 0.000000000000e+00 
1.939120236355e+01 0.000000000000e+00 
1.964225064348e+01 0.000000000000e+00 
1.968272415233e+01 0.000000000000e+00 
1.993085721474e+01 0.000000000000e+00 
1.997133072359e+01 0.000000000000e+00 
2.021657771898e+01 0.000000000000e+00 
2.025705122783e+01 0.000000000000e+00 
2.049944101721e+01 0.000000000000e+00 
2.053991452606e+01 0.000000000000e+00 
2.077947568149e+01 0.000000000000e+00 
2.081994919034e+01 0.000000000000e+00 
2.105670999812e+01 0.000000000000e+00 
2.109718350697e+01 0.000000000000e+00 
2.133117197334e+01 0.000000000000e+00 
2.137164548219e+01 0.000000000000e+00 
2.160288933107e+01 0.000000000000e+00 
2.164336283992e+01 0.000000000000e+00 
2.187188951598e+01 0.000000000000e+00 
2.191236302483e+01 0.000000000000e+00 
2.213819969902e+01 0.000000000000e+00 
2.217867320786e+01 0.000000000000e+00 
2.240184677762e+01 0.000000000000e+00 
2.244232028647e+01 0.000000000000e+00 
2.266285738388e+01 0.000000000000e+00 
2.270333089272e+01 0.000000000000e+00 
2.292125788446e+01 0.000000000000e+00 
2.296173139331e+01 0.000000000000e+00 
2.317707438089e+01 0.000000000000e+00 
2.321754788974e+01 0.000000000000e+00 
2.343033271209e+01 0.000000000000e+00 
2.347080622094e+01 0.000000000000e+00 
2.368105845968e+01 0.000000000000e+00 
2.372153196852e+01 0.000000000000e+00 
2.392927695044e+01 0.000000000000e+00 
2.396975045929e+01 0.000000000000e+00 
2.417501325628e+01 0.000000000000e+00 
2.421548676513e+01 0.000000000000e+00 
2.441829219921e+01 0.000000000000e+00 
2.445876570806e+01 0.000000000000e+00 
2.465913835382e+01 0.000000000000e+00 
2.469961186267e+01 0.000000000000e+00 
2.489757604691e+01 0.000000000000e+00 
2.493804955575e+01 0.000000000000e+00 
2.513362936252e+01 0.000000000000e+00 
2.517410287136e+01 0.000000000000e+00 
2.536732214406e+01 0.000000000000e+00 
2.540779565291e+01 0.000000000000e+00 
2.559867799663e+01 0.000000000000e+00 
2.563915150548e+01 0.000000000000e+00 
2.582772029166e+01 0.000000000000e+00 
2.586819380051e+01 0.000000000000e+00 
2.605447216381e+01 0.000000000000e+00 
2.609494567266e+01 0.000000000000e+00 
2.627895651833e+01 0.000000000000e+00 
2.631943002717e+01 0.000000000000e+00 
2.650119603032e+01 0.000000000000e+00 
2.654166953917e+01 0.000000000000e+00 
2.672121314685e+01 0.000000000000e+00 
2.676168665569e+01 0.000000000000e+00 
2.693903009135e+01 0.000000000000e+00 
2.697950360020e+01 0.000000000000e+00 
2.715466886560e+01 0.000000000000e+00 
2.719514237445e+01 0.000000000000e+00 
2.736815125146e+01 0.000000000000e+00 
2.740862476030e+01 0.000000000000e+00 
2.757949881268e+01 0.000000000000e+00 
2.761997232153e+01 0.000000000000e+00 
2.778873289929e+01 0.000000000000e+00 
2.782920640813e+01 0.000000000000e+00 
2.799587464657e+01 0.000000000000e+00 
2.803634815541e+01 0.000000000000e+00 
2.820094497680e+01 0.000000000000e+00 
2.824141848565e+01 0.000000000000e+00 
2.840396460349e+01 0.000000000000e+00 
2.844443811234e+01 0.000000000000e+00 
2.860495403289e+01 0.000000000000e+00 
2.864542754173e+01 0.000000000000e+00 
2.880393356815e+01 0.000000000000e+00 
2.884440707700e+01 0.000000000000e+00 
2.900092330818e+01 0.000000000000e+00 
2.904139681703e+01 0.000000000000e+00 
2.919594315171e+01 0.000000000000e+00 
2.923641666055e+01 0.000000000000e+00 
2.938901279868e+01 0.000000000000e+00 
2.942948630753e+01 0.000000000000e+00 
2.958015174911e+01 0.000000000000e+00 
2.962062525795e+01 0.000000000000e+00 
2.976937930929e+01 0.000000000000e+00 
2.980985281814e+01 0.000000000000e+00 
2.995671459354e+01 0.000000000000e+00 
2.999718810239e+01 0.000000000000e+00 
3.014217652514e+01 0.000000000000e+00 
3.018265003398e+01 0.000000000000e+00 
3.032578383760e+01 0.000000000000e+00 
3.036625734645e+01 0.000000000000e+00 
3.050755507588e+01 0.000000000000e+00 
3.054802858472e+01 0.000000000000e+00 
3.068750860006e+01 0.000000000000e+00 
3.072798210891e+01 0.000000000000e+00 
3.086566258912e+01 0.000000000000e+00 
3.090613609797e+01 0.000000000000e+00 
3.104203503928e+01 0.000000000000e+00 
3.108250854813e+01 0.000000000000e+00 
3.121664376509e+01 0.000000000000e+00 
3.125711727394e+01 0.000000000000e+00 
3.138950640301e+01 0.000000000000e+00 
3.142997991185e+01 0.000000000000e+00 
3.156064041497e+01 0.000000000000e+00 
3.160111392381e+01 0.000000000000e+00 
3.173006308663e+01 0.000000000000e+00 
3.177053659548e+01 0.000000000000e+00 
3.189779153096e+01 0.000000000000e+00 
3.193826503981e+01 0.000000000000e+00 
3.206384269158e+01 0.000000000000e+00 
3.210431620043e+01 0.000000000000e+00 
3.222823334100e+01 0.000000000000e+00 
3.226870684985e+01 0.000000000000e+00 
3.239098008403e+01 0.000000000000e+00 
3.243145359288e+01 0.000000000000e+00 
3.255209935846e+01 0.000000000000e+00 
3.259257286731e+01 0.000000000000e+00 
3.271160744108e+01 0.000000000000e+00 
3.275208094992e+01 0.000000000000e+00 
3.286952044297e+01 0.000000000000e+00 
3.290999395182e+01 0.000000000000e+00 
3.302585431295e+01 0.000000000000e+00 
3.306632782179e+01 0.000000000000e+00 
3.318062484585e+01 0.000000000000e+00 
3.322109835470e+01 0.000000000000e+00 
3.333384767533e+01 0.000000000000e+00 
3.337432118417e+01 0.000000000000e+00 
3.348553827697e+01 0.000000000000e+00 
3.352601178582e+01 0.000000000000e+00 
3.363571197150e+01 0.000000000000e+00 
3.367618548034e+01 0.000000000000e+00 
3.378438392781e+01 0.000000000000e+00 
3.382485743666e+01 0.000000000000e+00 
3.393156916343e+01 0.000000000000e+00 
3.397204267228e+01 0.000000000000e+00 
3.407728254755e+01 0.000000000000e+00 
3.411775605640e+01 0.000000000000e+00 
3.422153879872e+01 0.000000000000e+00 
3.426201230757e+01 0.000000000000e+00 
3.436435248534e+01 0.000000000000e+00 
3.440482599418e+01 0.000000000000e+00 
3.450573803636e+01 0.000000000000e+00 
3.454621154521e+01 0.000000000000e+00 
3.464570973371e+01 0.000000000000e+00 
3.468618324256e+01 0.000000000000e+00 
3.478428171263e+01 0.000000000000e+00 
3.482475522147e+01 0.000000000000e+00 
3.492146797236e+01 0.000000000000e+00 
3.496194148120e+01 0.000000000000e+00 
3.505728237106e+01 0.000000000000e+00 
3.509775587991e+01 0.000000000000e+00 
3.519173862344e+01 0.000000000000e+00 
3.523221213229e+01 0.000000000000e+00 
3.532485031140e+01 0.000000000000e+00 
3.536532382025e+01 0.000000000000e+00 
3.545663088406e+01 0.000000000000e+00 
3.549710439291e+01 0.000000000000e+00 
3.558709365266e+01 0.000000000000e+00 
3.562756716151e+01 0.000000000000e+00 
3.571625179326e+01 0.000000000000e+00 
3.575672530210e+01 0.000000000000e+00 
3.584411835205e+01 0.000000000000e+00 
3.588459186089e+01 0.000000000000e+00 
3.597070624531e+01 0.000000000000e+00 
3.601117975416e+01 0.000000000000e+00 
3.609602825945e+01 0.000000000000e+00 
3.613650176830e+01 0.000000000000e+00 
3.622009705354e+01 0.000000000000e+00 
3.626057056238e+01 0.000000000000e+00 
3.634292515928e+01 0.000000000000e+00 
3.638339866813e+01 0.000000000000e+00 
3.646452498354e+01 0.000000000000e+00 
3.650499849239e+01 0.000000000000e+00 
3.658490881084e+01 0.000000000000e+00 
3.662538231969e+01 0.000000000000e+00 
3.670408880057e+01 0.000000000000e+00 
3.674456230942e+01 0.000000000000e+00 
3.682207698952e+01 0.000000000000e+00 
3.686255049837e+01 0.000000000000e+00 
3.693888529689e+01 0.000000000000e+00 
3.697935880573e+01 0.000000000000e+00 
3.705452552142e+01 0.000000000000e+00 
3.709499903026e+01 0.000000000000e+00 
3.716900934384e+01 0.000000000000e+00 
3.720948285268e+01 0.000000000000e+00 
3.728234832657e+01 0.000000000000e+00 
3.732282183541e+01 0.000000000000e+00 
3.739455391872e+01 0.000000000000e+00 
3.743502742757e+01 0.000000000000e+00 
3.750563745571e+01 0.000000000000e+00 
3.754611096455e+01 0.000000000000e+00 
3.761561015635e+01 0.000000000000e+00 
3.765608366519e+01 0.000000000000e+00 
3.772448313038e+01 0.000000000000e+00 
3.776495663923e+01 0.000000000000e+00 
3.783226737542e+01 0.000000000000e+00 
3.787274088427e+01 0.000000000000e+00 
3.793897377662e+01 0.000000000000e+00 
3.797944728547e+01 0.000000000000e+00 
3.804461311409e+01 0.000000000000e+00 
3.808508662293e+01 0.000000000000e+00 
3.814919605976e+01 0.000000000000e+00 
3.818966956861e+01 0.000000000000e+00 
3.825273317442e+01 0.000000000000e+00 
3.829320668327e+01 0.000000000000e+00 
3.835523491766e+01 0.000000000000e+00 
3.839570842651e+01 0.000000000000e+00 
3.845671164469e+01 0.000000000000e+00 
3.849718515354e+01 0.000000000000e+00 
3.855717360327e+01 0.000000000000e+00 
3.859764711212e+01 0.000000000000e+00 
3.865663094361e+01 0.000000000000e+00 
3.869710445246e+01 0.000000000000e+00 
3.875509371251e+01 0.000000000000e+00 
3.879556722136e+01 0.000000000000e+00 
3.885257185286e+01 0.000000000000e+00 
3.889304536170e+01 0.000000000000e+00 
3.894907521084e+01 0.000000000000e+00 
3.898954871969e+01 0.000000000000e+00 
3.904461353532e+01 0.000000000000e+00 
3.908508704416e+01 0.000000000000e+00 
3.913919647713e+01 0.000000000000e+00 
3.917966998598e+01 0.000000000000e+00 
3.923283358849e+01 0.000000000000e+00 
3.927330709734e+01 0.000000000000e+00 
3.932553432751e+01 0.000000000000e+00 
3.936600783636e+01 0.000000000000e+00 
3.941730806009e+01 0.000000000000e+00 
3.945778156893e+01 0.000000000000e+00 
3.950816405656e+01 0.000000000000e+00 
3.954863756540e+01 0.000000000000e+00 
3.959811149359e+01 0.000000000000e+00 
3.963858500244e+01 0.000000000000e+00 
3.968715945605e+01 0.000000000000e+00 
3.972763296490e+01 0.000000000000e+00 
3.977531693882e+01 0.000000000000e+00 
3.981579044767e+01 0.000000000000e+00 
3.986259284598e+01 0.000000000000e+00 
3.990306635482e+01 0.000000000000e+00 
3.994899599265e+01 0.000000000000e+00 
3.998946950149e+01 0.000000000000e+00 
4.003453510935e+01 0.000000000000e+00 
4.007500861820e+01 0.000000000000e+00 
4.011921883588e+01 0.000000000000e+00 
4.015969234473e+01 0.000000000000e+00 
4.020305572314e+01 0.000000000000e+00 
4.024352923199e+01 0.000000000000e+00 
4.028605424007e+01 0.000000000000e+00 
4.032652774891e+01 0.000000000000e+00 
4.036822277271e+01 0.000000000000e+00 
4.040869628155e+01 0.000000000000e+00 
4.044956962064e+01 0.000000000000e+00 
4.049004312949e+01 0.000000000000e+00 
4.053010300136e+01 0.000000000000e+00 
4.057057651021e+01 0.000000000000e+00 
4.060983104921e+01 0.000000000000e+00 
4.065030455805e+01 0.000000000000e+00 
4.068876181452e+01 0.000000000000e+00 
4.072923532336e+01 0.000000000000e+00 
4.076690327042e+01 0.000000000000e+00 
4.080737677927e+01 0.000000000000e+00 
4.084426331184e+01 0.000000000000e+00 
4.088473682069e+01 0.000000000000e+00 
4.092084975443e+01 0.000000000000e+00 
4.096132326328e+01 0.000000000000e+00 
4.099667033355e+01 0.000000000000e+00 
4.103714384240e+01 0.000000000000e+00 
4.107173270587e+01 0.000000000000e+00 
4.111220621472e+01 0.000000000000e+00 
4.114604445353e+01 0.000000000000e+00 
4.118651796238e+01 0.000000000000e+00 
4.121961308564e+01 0.000000000000e+00 
4.126008659448e+01 0.000000000000e+00 
 TITLE = "Profiles along polylines"
 VARIABLES = "DIST" "HEAD" 
 ZONE T="TIME=1.797693134862e+308"
6.219613085635e+00 3.416917194986e+01 
6.260086594481e+00 3.416570725374e+01 
6.642446029901e+00 3.416902336959e+01 
6.682919538747e+00 3.416555852677e+01 
7.061050647040e+00 3.416887778302e+01 
7.101524155887e+00 3.416541279497e+01 
7.475469216910e+00 3.416873513057e+01 
7.515942725757e+00 3.416526999873e+01 
7.885743600930e+00 3.416859535354e+01 
7.926217109776e+00 3.416513007935e+01 
8.291915242583e+00 3.416845839432e+01 
8.332388751430e+00 3.416499297921e+01 
8.694025168005e+00 3.416832419644e+01 
8.734498676852e+00 3.416485864181e+01 
9.092113994254e+00 3.416819270455e+01 
9.132587503101e+00 3.416472701179e+01 
9.486221932267e+00 3.416806386442e+01 
9.526695441114e+00 3.416459803492e+01 
9.876388789749e+00 3.416793762292e+01 
9.916862298595e+00 3.416447165804e+01 
1.026265397661e+01 3.416781392798e+01 
1.030312748546e+01 3.416434782908e+01 
1.064505651290e+01 3.416769272856e+01 
1.068553002175e+01 3.416422649698e+01 
1.102363502354e+01 3.416757397467e+01 
1.106410853239e+01 3.416410761173e+01 
1.139842774888e+01 3.416745761730e+01 
1.143890125773e+01 3.416399112432e+01 
1.176947254703e+01 3.416734360842e+01 
1.180994605588e+01 3.416387698670e+01 
1.213680689640e+01 3.416723190096e+01 
1.217728040525e+01 3.416376515178e+01 
1.250046790316e+01 3.416712244880e+01 
1.254094141201e+01 3.416365557345e+01 
1.286049229834e+01 3.416701520674e+01 
1.290096580719e+01 3.416354820647e+01 
1.321691645045e+01 3.416691013047e+01 
1.325738995930e+01 3.416344300653e+01 
1.356977636231e+01 3.416680717658e+01 
1.361024987116e+01 3.416333993020e+01 
1.391910767578e+01 3.416670630251e+01 
1.395958118463e+01 3.416323893493e+01 
1.426494567628e+01 3.416660746658e+01 
1.430541918512e+01 3.416313997900e+01 
1.460732529471e+01 3.416651062790e+01 
1.464779880356e+01 3.416304302153e+01 
1.494628111716e+01 3.416641574644e+01 
1.498675462600e+01 3.416294802246e+01 
1.528184738129e+01 3.416632278294e+01 
1.532232089014e+01 3.416285494253e+01 
1.561405798340e+01 3.416623169894e+01 
1.565453149224e+01 3.416276374325e+01 
1.594294647988e+01 3.416614245674e+01 
1.598341998873e+01 3.416267438694e+01 
1.626854609153e+01 3.416605501939e+01 
1.630901960038e+01 3.416258683661e+01 
1.659088970752e+01 3.416596935069e+01 
1.663136321637e+01 3.416250105607e+01 
1.691000988687e+01 3.416588541516e+01 
1.695048339571e+01 3.416241700981e+01 
1.722593886498e+01 3.416580317802e+01 
1.726641237383e+01 3.416233466305e+01 
1.753870855234e+01 3.416572260519e+01 
1.757918206118e+01 3.416225398170e+01 
1.784835054352e+01 3.416564366328e+01 
1.788882405237e+01 3.416217493235e+01 
1.815489611574e+01 3.416556631956e+01 
1.819536962459e+01 3.416209748226e+01 
1.845837622994e+01 3.416549054194e+01 
1.849884973879e+01 3.416202159934e+01 
1.875882154231e+01 3.416541629900e+01 
1.879929505116e+01 3.416194725215e+01 
1.905626240252e+01 3.416534355992e+01 
1.909673591137e+01 3.416187440987e+01 
1.935072885471e+01 3.416527229452e+01 
1.939120236355e+01 3.416180304230e+01 
1.964225064348e+01 3.416520247321e+01 
1.968272415233e+01 3.416173311983e+01 
1.993085721474e+01 3.416513406698e+01 
1.997133072359e+01 3.416166461347e+01 
2.021657771898e+01 3.416506704744e+01 
2.025705122783e+01 3.416159749478e+01 
2.049944101721e+01 3.416500138671e+01 
2.053991452606e+01 3.416153173591e+01 
2.077947568149e+01 3.416493705752e+01 
2.081994919034e+01 3.416146730956e+01 
2.105670999812e+01 3.416487403312e+01 
2.109718350697e+01 3.416140418896e+01 
2.133117197334e+01 3.416481228729e+01 
2.137164548219e+01 3.416134234790e+01 
2.160288933107e+01 3.416475179435e+01 
2.164336283992e+01 3.416128176068e+01 
2.187188951598e+01 3.416469252912e+01 
2.191236302483e+01 3.416122240211e+01 
2.213819969902e+01 3.416463446694e+01 
2.217867320786e+01 3.416116424753e+01 
2.240184677762e+01 3.416457758362e+01 
2.244232028647e+01 3.416110727273e+01 
2.266285738388e+01 3.416452185547e+01 
2.270333089272e+01 3.416105145402e+01 
2.292125788446e+01 3.416446725928e+01 
2.296173139331e+01 3.416099676816e+01 
2.317707438089e+01 3.416441377228e+01 
2.321754788974e+01 3.416094319240e+01 
2.343033271209e+01 3.416436137218e+01 
2.347080622094e+01 3.416089070442e+01 
2.368105845968e+01 3.416431003712e+01 
2.372153196852e+01 3.416083928237e+01 
2.392927695044e+01 3.416425974568e+01 
2.396975045929e+01 3.416078890480e+01 
2.417501325628e+01 3.416421047688e+01 
2.421548676513e+01 3.416073955074e+01 
2.441829219921e+01 3.416416221015e+01 
2.445876570806e+01 3.416069119959e+01 
2.465913835382e+01 3.416411492532e+01 
2.469961186267e+01 3.416064383120e+01 
2.489757604691e+01 3.416406860265e+01 
2.493804955575e+01 3.416059742580e+01 
2.513362936252e+01 3.416402322278e+01 
2.517410287136e+01 3.416055196402e+01 
2.536732214406e+01 3.416397876674e+01 
2.540779565291e+01 3.416050742689e+01 
2.559867799663e+01 3.416393521592e+01 
2.563915150548e+01 3.416046379580e+01 
2.582772029166e+01 3.416389255212e+01 
2.586819380051e+01 3.416042105253e+01 
2.605447216381e+01 3.416385075748e+01 
2.609494567266e+01 3.416037917921e+01 
2.627895651833e+01 3.416380981450e+01 
2.631943002717e+01 3.416033815834e+01 
2.650119603032e+01 3.416376970603e+01 
2.654166953917e+01 3.416029797276e+01 
2.672121314685e+01 3.416373041527e+01 
2.676168665569e+01 3.416025860566e+01 
2.693903009135e+01 3.416369192576e+01 
2.697950360020e+01 3.416022004056e+01 
2.715466886560e+01 3.416365422134e+01 
2.719514237445e+01 3.416018226133e+01 
2.736815125146e+01 3.416361728621e+01 
2.740862476030e+01 3.416014525212e+01 
2.757949881268e+01 3.416358110487e+01 
2.761997232153e+01 3.416010899745e+01 
2.778873289929e+01 3.416354566213e+01 
2.782920640813e+01 3.416007348211e+01 
2.799587464657e+01 3.416351094311e+01 
2.803634815541e+01 3.416003869122e+01 
2.820094497680e+01 3.416347693322e+01 
2.824141848565e+01 3.416000461017e+01 
2.840396460349e+01 3.416344361816e+01 
2.844443811234e+01 3.415997122467e+01 
2.860495403289e+01 3.416341098394e+01 
2.864542754173e+01 3.415993852071e+01 
2.880393356815e+01 3.416337901681e+01 
2.884440707700e+01 3.415990648454e+01 
2.900092330818e+01 3.416334770334e+01 
2.904139681703e+01 3.415987510272e+01 
2.919594315171e+01 3.416331703033e+01 
2.923641666055e+01 3.415984436204e+01 
2.938901279868e+01 3.416328698487e+01 
2.942948630753e+01 3.415981424959e+01 
2.958015174911e+01 3.416325755429e+01 
2.962062525795e+01 3.415978475270e+01 
2.976937930929e+01 3.416322872620e+01 
2.980985281814e+01 3.415975585895e+01 
2.995671459354e+01 3.416320048844e+01 
2.999718810239e+01 3.415972755619e+01 
3.014217652514e+01 3.416317282908e+01 
3.018265003398e+01 3.415969983248e+01 
3.032578383760e+01 3.416314573647e+01 
3.036625734645e+01 3.415967267616e+01 
3.050755507588e+01 3.416311919914e+01 
3.054802858472e+01 3.415964607576e+01 
3.068750860006e+01 3.416309320590e+01 
3.072798210891e+01 3.415962002008e+01 
3.086566258912e+01 3.416306774575e+01 
3.090613609797e+01 3.415959449812e+01 
3.104203503928e+01 3.416304280793e+01 
3.108250854813e+01 3.415956949911e+01 
3.121664376509e+01 3.416301838189e+01 
3.125711727394e+01 3.415954501248e+01 
3.138950640301e+01 3.416299445729e+01 
3.142997991185e+01 3.415952102790e+01 
3.156064041497e+01 3.416297102399e+01 
3.160111392381e+01 3.415949753523e+01 
3.173006308663e+01 3.416294807207e+01 
3.177053659548e+01 3.415947452452e+01 
3.189779153096e+01 3.416292559180e+01 
3.193826503981e+01 3.415945198605e+01 
3.206384269158e+01 3.416290357363e+01 
3.210431620043e+01 3.415942991027e+01 
3.222823334100e+01 3.416288200824e+01 
3.226870684985e+01 3.415940828784e+01 
3.239098008403e+01 3.416286088646e+01 
3.243145359288e+01 3.415938710959e+01 
3.255209935846e+01 3.416284019931e+01 
3.259257286731e+01 3.415936636654e+01 
3.271160744108e+01 3.416281993802e+01 
3.275208094992e+01 3.415934604990e+01 
3.286952044297e+01 3.416280009395e+01 
3.290999395182e+01 3.415932615104e+01 
3.302585431295e+01 3.416278065867e+01 
3.306632782179e+01 3.415930666152e+01 
3.318062484585e+01 3.416276162391e+01 
3.322109835470e+01 3.415928757306e+01 
3.333384767533e+01 3.416274298155e+01 
3.337432118417e+01 3.415926887753e+01 
3.348553827697e+01 3.416272472365e+01 
3.352601178582e+01 3.415925056700e+01 
3.363571197150e+01 3.416270684243e+01 
3.367618548034e+01 3.415923263368e+01 
3.378438392781e+01 3.416268933025e+01 
3.382485743666e+01 3.415921506992e+01 
3.393156916343e+01 3.416267217965e+01 
3.397204267228e+01 3.415919786824e+01 
3.407728254755e+01 3.416265538329e+01 
3.411775605640e+01 3.415918102132e+01 
3.422153879872e+01 3.416263893399e+01 
3.426201230757e+01 3.415916452198e+01 
3.436435248534e+01 3.416262282472e+01 
3.440482599418e+01 3.415914836316e+01 
3.450573803636e+01 3.416260704859e+01 
3.454621154521e+01 3.415913253797e+01 
3.464570973371e+01 3.416259159885e+01 
3.468618324256e+01 3.415911703966e+01 
3.478428171263e+01 3.416257646886e+01 
3.482475522147e+01 3.415910186159e+01 
3.492146797236e+01 3.416256165215e+01 
3.496194148120e+01 3.415908699728e+01 
3.505728237106e+01 3.416254714236e+01 
3.509775587991e+01 3.415907244037e+01 
3.519173862344e+01 3.416253293326e+01 
3.523221213229e+01 3.415905818462e+01 
3.532485031140e+01 3.416251901875e+01 
3.536532382025e+01 3.415904422393e+01 
3.545663088406e+01 3.416250539285e+01 
3.549710439291e+01 3.415903055230e+01 
3.558709365266e+01 3.416249204969e+01 
3.562756716151e+01 3.415901716388e+01 
3.571625179326e+01 3.416247898354e+01 
3.575672530210e+01 3.415900405291e+01 
3.584411835205e+01 3.416246618877e+01 
3.588459186089e+01 3.415899121377e+01 
3.597070624531e+01 3.416245365986e+01 
3.601117975416e+01 3.415897864094e+01 
3.609602825945e+01 3.416244139141e+01 
3.613650176830e+01 3.415896632901e+01 
3.622009705354e+01 3.416242937812e+01 
3.626057056238e+01 3.415895427268e+01 
3.634292515928e+01 3.416241761481e+01 
3.638339866813e+01 3.415894246676e+01 
3.646452498354e+01 3.416240609640e+01 
3.650499849239e+01 3.415893090615e+01 
3.658490881084e+01 3.416239481790e+01 
3.662538231969e+01 3.415891958588e+01 
3.670408880057e+01 3.416238377443e+01 
3.674456230942e+01 3.415890850106e+01 
3.682207698952e+01 3.416237296121e+01 
3.686255049837e+01 3.415889764691e+01 
3.693888529689e+01 3.416236237355e+01 
3.697935880573e+01 3.415888701872e+01 
3.705452552142e+01 3.416235200686e+01 
3.709499903026e+01 3.415887661191e+01 
3.716900934384e+01 3.416234185664e+01 
3.720948285268e+01 3.415886642196e+01 
3.728234832657e+01 3.416233191848e+01 
3.732282183541e+01 3.415885644448e+01 
3.739455391872e+01 3.416232218806e+01 
3.743502742757e+01 3.415884667512e+01 
3.750563745571e+01 3.416231266114e+01 
3.754611096455e+01 3.415883710967e+01 
3.761561015635e+01 3.416230333358e+01 
3.765608366519e+01 3.415882774395e+01 
3.772448313038e+01 3.416229420131e+01 
3.776495663923e+01 3.415881857390e+01 
3.783226737542e+01 3.416228526035e+01 
3.787274088427e+01 3.415880959555e+01 
3.793897377662e+01 3.416227650679e+01 
3.797944728547e+01 3.415880080497e+01 
3.804461311409e+01 3.416226793682e+01 
3.808508662293e+01 3.415879219835e+01 
3.814919605976e+01 3.416225954668e+01 
3.818966956861e+01 3.415878377192e+01 
3.825273317442e+01 3.416225133270e+01 
3.829320668327e+01 3.415877552202e+01 
3.835523491766e+01 3.416224329129e+01 
3.839570842651e+01 3.415876744505e+01 
3.845671164469e+01 3.416223541892e+01 
3.849718515354e+01 3.415875953747e+01 
3.855717360327e+01 3.416222771214e+01 
3.859764711212e+01 3.415875179583e+01 
3.865663094361e+01 3.416222016756e+01 
3.869710445246e+01 3.415874421674e+01 
3.875509371251e+01 3.416221278186e+01 
3.879556722136e+01 3.415873679688e+01 
3.885257185286e+01 3.416220555180e+01 
3.889304536170e+01 3.415872953300e+01 
3.894907521084e+01 3.416219847419e+01 
3.898954871969e+01 3.415872242191e+01 
3.904461353532e+01 3.416219154592e+01 
3.908508704416e+01 3.415871546049e+01 
3.913919647713e+01 3.416218476392e+01 
3.917966998598e+01 3.415870864567e+01 
3.923283358849e+01 3.416217812520e+01 
3.927330709734e+01 3.415870197447e+01 
3.932553432751e+01 3.416217162683e+01 
3.936600783636e+01 3.415869544393e+01 
3.941730806009e+01 3.416216526593e+01 
3.945778156893e+01 3.415868905119e+01 
3.950816405656e+01 3.416215903968e+01 
3.954863756540e+01 3.415868279343e+01 
3.959811149359e+01 3.416215294533e+01 
3.963858500244e+01 3.415867666787e+01 
3.968715945605e+01 3.416214698017e+01 
3.972763296490e+01 3.415867067181e+01 
3.977531693882e+01 3.416214114155e+01 
3.981579044767e+01 3.415866480260e+01 
3.986259284598e+01 3.416213542687e+01 
3.990306635482e+01 3.415865905764e+01 
3.994899599265e+01 3.416212983359e+01 
3.998946950149e+01 3.415865343438e+01 
4.003453510935e+01 3.416212435921e+01 
4.007500861820e+01 3.415864793033e+01 
4.011921883588e+01 3.416211900130e+01 
4.015969234473e+01 3.415864254304e+01 
4.020305572314e+01 3.416211375746e+01 
4.024352923199e+01 3.415863727011e+01 
4.028605424007e+01 3.416210862535e+01 
4.032652774891e+01 3.415863210920e+01 
4.036822277271e+01 3.416210360267e+01 
4.040869628155e+01 3.415862705801e+01 
4.044956962064e+01 3.416209868716e+01 
4.049004312949e+01 3.415862211428e+01 
4.053010300136e+01 3.416209387663e+01 
4.057057651021e+01 3.415861727581e+01 
4.060983104921e+01 3.416208916892e+01 
4.065030455805e+01 3.415861254043e+01 
4.068876181452e+01 3.416208456189e+01 
4.072923532336e+01 3.415860790603e+01 
4.076690327042e+01 3.416208005350e+01 
4.080737677927e+01 3.415860337052e+01 
4.084426331184e+01 3.416207564169e+01 
4.088473682069e+01 3.415859893187e+01 
4.092084975443e+01 3.416207132448e+01 
4.096132326328e+01 3.415859458809e+01 
4.099667033355e+01 3.416206709992e+01 
4.103714384240e+01 3.415859033722e+01 
4.107173270587e+01 3.416206296610e+01 
4.111220621472e+01 3.415858617736e+01 
4.114604445353e+01 3.416205892114e+01 
4.118651796238e+01 3.415858210662e+01 
4.121961308564e+01 3.416205496329e+01 
4.126008659448e+01 3.415857812325e+01 
