 TITLE = "Profiles along polylines"
 VARIABLES = "DIST" "HEAD" 
 ZONE T="TIME=0.000000000000e+00"
8.772362180931e+01 0.000000000000e+00 
8.814645475357e+01 0.000000000000e+00 
8.826430687883e+01 0.000000000000e+00 
8.856505937072e+01 0.000000000000e+00 
8.868713982310e+01 0.000000000000e+00 
8.897947794059e+01 0.000000000000e+00 
8.910574444024e+01 0.000000000000e+00 
8.938975232461e+01 0.000000000000e+00 
8.952016301011e+01 0.000000000000e+00 
8.979592396626e+01 0.000000000000e+00 
8.993043739413e+01 0.000000000000e+00 
9.019803389169e+01 0.000000000000e+00 
9.033660903578e+01 0.000000000000e+00 
9.059612271794e+01 0.000000000000e+00 
9.073871896121e+01 0.000000000000e+00 
9.099023065595e+01 0.000000000000e+00 
9.113680778746e+01 0.000000000000e+00 
9.138039751343e+01 0.000000000000e+00 
9.153091572547e+01 0.000000000000e+00 
9.176666270029e+01 0.000000000000e+00 
9.192108258296e+01 0.000000000000e+00 
9.214906523659e+01 0.000000000000e+00 
9.230734776982e+01 0.000000000000e+00 
9.252764374723e+01 0.000000000000e+00 
9.268975030611e+01 0.000000000000e+00 
9.290243647257e+01 0.000000000000e+00 
9.306832881675e+01 0.000000000000e+00 
9.327348127072e+01 0.000000000000e+00 
9.344312154209e+01 0.000000000000e+00 
9.364081562009e+01 0.000000000000e+00 
9.381416634024e+01 0.000000000000e+00 
9.400447662685e+01 0.000000000000e+00 
9.418150068961e+01 0.000000000000e+00 
9.436450102203e+01 0.000000000000e+00 
9.454516169638e+01 0.000000000000e+00 
9.472092517415e+01 0.000000000000e+00 
9.490518609155e+01 0.000000000000e+00 
9.507378508601e+01 0.000000000000e+00 
9.526161024367e+01 0.000000000000e+00 
9.542311639948e+01 0.000000000000e+00 
9.561447015553e+01 0.000000000000e+00 
9.576895439997e+01 0.000000000000e+00 
9.596380146900e+01 0.000000000000e+00 
9.611133401841e+01 0.000000000000e+00 
9.630963946949e+01 0.000000000000e+00 
9.645028984086e+01 0.000000000000e+00 
9.665201908793e+01 0.000000000000e+00 
9.678585610499e+01 0.000000000000e+00 
9.699097491038e+01 0.000000000000e+00 
9.711806670710e+01 0.000000000000e+00 
9.732654117451e+01 0.000000000000e+00 
9.744695520358e+01 0.000000000000e+00 
9.765875177662e+01 0.000000000000e+00 
9.777255481524e+01 0.000000000000e+00 
9.798764027311e+01 0.000000000000e+00 
9.809489843122e+01 0.000000000000e+00 
9.831323988476e+01 0.000000000000e+00 
9.841401861057e+01 0.000000000000e+00 
9.863558350075e+01 0.000000000000e+00 
9.872994758869e+01 0.000000000000e+00 
9.895470368010e+01 0.000000000000e+00 
9.904271727604e+01 0.000000000000e+00 
9.927063265821e+01 0.000000000000e+00 
9.935235926723e+01 0.000000000000e+00 
9.958340234557e+01 0.000000000000e+00 
9.965890483945e+01 0.000000000000e+00 
9.989304433676e+01 0.000000000000e+00 
9.996238495365e+01 0.000000000000e+00 
1.001995899090e+02 0.000000000000e+00 
1.002628302660e+02 0.000000000000e+00 
1.005030700232e+02 0.000000000000e+00 
1.005602711262e+02 0.000000000000e+00 
1.008035153355e+02 0.000000000000e+00 
1.008547375784e+02 0.000000000000e+00 
1.011009561958e+02 0.000000000000e+00 
1.011462593672e+02 0.000000000000e+00 
1.013954226479e+02 0.000000000000e+00 
1.014348659385e+02 0.000000000000e+00 
1.016869444367e+02 0.000000000000e+00 
1.017205864427e+02 0.000000000000e+00 
1.019755510080e+02 0.000000000000e+00 
 TITLE = "Profiles along polylines"
 VARIABLES = "DIST" "HEAD" 
 ZONE T="TIME=1.797693134862e+308"
8.772362180931e+01 3.071849445467e+01 
8.814645475357e+01 3.071786245750e+01 
8.826430687883e+01 3.068900929927e+01 
8.856505937072e+01 3.071723739377e+01 
8.868713982310e+01 3.068837635201e+01 
8.897947794059e+01 3.071661921328e+01 
8.910574444024e+01 3.068775061916e+01 
8.938975232461e+01 3.071600785859e+01 
8.952016301011e+01 3.068713201808e+01 
8.979592396626e+01 3.071540326884e+01 
8.993043739413e+01 3.068652046969e+01 
9.019803389169e+01 3.071480538186e+01 
9.033660903578e+01 3.068591589723e+01 
9.059612271794e+01 3.071421413519e+01 
9.073871896121e+01 3.068531822553e+01 
9.099023065595e+01 3.071362946659e+01 
9.113680778746e+01 3.068472738063e+01 
9.138039751343e+01 3.071305131425e+01 
9.153091572547e+01 3.068414328958e+01 
9.176666270029e+01 3.071247961687e+01 
9.192108258296e+01 3.068356588028e+01 
9.214906523659e+01 3.071191431359e+01 
9.230734776982e+01 3.068299508147e+01 
9.252764374723e+01 3.071135534403e+01 
9.268975030611e+01 3.068243082260e+01 
9.290243647257e+01 3.071080264817e+01 
9.306832881675e+01 3.068187303384e+01 
9.327348127072e+01 3.071025616635e+01 
9.344312154209e+01 3.068132164606e+01 
9.364081562009e+01 3.070971583921e+01 
9.381416634024e+01 3.068077659074e+01 
9.400447662685e+01 3.070918160766e+01 
9.418150068961e+01 3.068023780001e+01 
9.436450102203e+01 3.070865341287e+01 
9.454516169638e+01 3.067970520659e+01 
9.472092517415e+01 3.070813119621e+01 
9.490518609155e+01 3.067917874379e+01 
9.507378508601e+01 3.070761489928e+01 
9.526161024367e+01 3.067865834547e+01 
9.542311639948e+01 3.070710446388e+01 
9.561447015553e+01 3.067814394604e+01 
9.576895439997e+01 3.070659983202e+01 
9.596380146900e+01 3.067763548046e+01 
9.611133401841e+01 3.070610094591e+01 
9.630963946949e+01 3.067713288419e+01 
9.645028984086e+01 3.070560774795e+01 
9.665201908793e+01 3.067663609324e+01 
9.678585610499e+01 3.070512018074e+01 
9.699097491038e+01 3.067614504410e+01 
9.711806670710e+01 3.070463818711e+01 
9.732654117451e+01 3.067565967375e+01 
9.744695520358e+01 3.070416171009e+01 
9.765875177662e+01 3.067517991970e+01 
9.777255481524e+01 3.070369069295e+01 
9.798764027311e+01 3.067470571993e+01 
9.809489843122e+01 3.070322507918e+01 
9.831323988476e+01 3.067423701292e+01 
9.841401861057e+01 3.070276481253e+01 
9.863558350075e+01 3.067377373762e+01 
9.872994758869e+01 3.070230983700e+01 
9.895470368010e+01 3.067331583350e+01 
9.904271727604e+01 3.070186009684e+01 
9.927063265821e+01 3.067286324047e+01 
9.935235926723e+01 3.070141553658e+01 
9.958340234557e+01 3.067241589898e+01 
9.965890483945e+01 3.070097610106e+01 
9.989304433676e+01 3.067197374991e+01 
9.996238495365e+01 3.070054173538e+01 
1.001995899090e+02 3.067153673467e+01 
1.002628302660e+02 3.070011238498e+01 
1.005030700232e+02 3.067110479514e+01 
1.005602711262e+02 3.069968799558e+01 
1.008035153355e+02 3.067067787369e+01 
1.008547375784e+02 3.069926851326e+01 
1.011009561958e+02 3.067025591318e+01 
1.011462593672e+02 3.069885388442e+01 
1.013954226479e+02 3.066983885695e+01 
1.014348659385e+02 3.069844405580e+01 
1.016869444367e+02 3.066942664884e+01 
1.017205864427e+02 3.069803897452e+01 
1.019755510080e+02 3.066901923319e+01 
