 TITLE = "Profiles along polylines"
 VARIABLES = "DIST" "HEAD" 
 ZONE T="TIME=0.000000000000e+00"
1.584178343563e+01 0.000000000000e+00 
1.608109732788e+01 0.000000000000e+00 
1.626461637990e+01 0.000000000000e+00 
1.650393027215e+01 0.000000000000e+00 
1.668322099704e+01 0.000000000000e+00 
1.692253488929e+01 0.000000000000e+00 
1.709763956691e+01 0.000000000000e+00 
1.733695345916e+01 0.000000000000e+00 
1.750791395093e+01 0.000000000000e+00 
1.774722784318e+01 0.000000000000e+00 
1.791408559259e+01 0.000000000000e+00 
1.815339948483e+01 0.000000000000e+00 
1.831619551801e+01 0.000000000000e+00 
1.855550941026e+01 0.000000000000e+00 
1.871428434426e+01 0.000000000000e+00 
1.895359823651e+01 0.000000000000e+00 
1.910839228227e+01 0.000000000000e+00 
1.934770617452e+01 0.000000000000e+00 
1.949855913975e+01 0.000000000000e+00 
1.973787303200e+01 0.000000000000e+00 
1.988482432661e+01 0.000000000000e+00 
2.012413821886e+01 0.000000000000e+00 
2.026722686291e+01 0.000000000000e+00 
2.050654075516e+01 0.000000000000e+00 
2.064580537355e+01 0.000000000000e+00 
2.088511926579e+01 0.000000000000e+00 
2.102059809889e+01 0.000000000000e+00 
2.125991199114e+01 0.000000000000e+00 
2.139164289704e+01 0.000000000000e+00 
2.163095678929e+01 0.000000000000e+00 
2.175897724641e+01 0.000000000000e+00 
2.199829113866e+01 0.000000000000e+00 
2.212263825317e+01 0.000000000000e+00 
2.236195214542e+01 0.000000000000e+00 
2.248266264835e+01 0.000000000000e+00 
2.272197654060e+01 0.000000000000e+00 
2.283908680046e+01 0.000000000000e+00 
2.307840069271e+01 0.000000000000e+00 
2.319194671232e+01 0.000000000000e+00 
2.343126060457e+01 0.000000000000e+00 
2.354127802579e+01 0.000000000000e+00 
2.378059191804e+01 0.000000000000e+00 
2.388711602628e+01 0.000000000000e+00 
2.412642991853e+01 0.000000000000e+00 
2.422949564472e+01 0.000000000000e+00 
2.446880953697e+01 0.000000000000e+00 
2.456845146717e+01 0.000000000000e+00 
2.480776535942e+01 0.000000000000e+00 
2.490401773130e+01 0.000000000000e+00 
2.514333162355e+01 0.000000000000e+00 
2.523622833341e+01 0.000000000000e+00 
2.547554222566e+01 0.000000000000e+00 
2.556511682989e+01 0.000000000000e+00 
2.580443072214e+01 0.000000000000e+00 
2.589071644155e+01 0.000000000000e+00 
2.613003033380e+01 0.000000000000e+00 
2.621306005753e+01 0.000000000000e+00 
2.645237394978e+01 0.000000000000e+00 
2.653218023688e+01 0.000000000000e+00 
2.677149412913e+01 0.000000000000e+00 
2.684810921500e+01 0.000000000000e+00 
2.708742310725e+01 0.000000000000e+00 
2.716087890235e+01 0.000000000000e+00 
2.740019279460e+01 0.000000000000e+00 
2.747052089354e+01 0.000000000000e+00 
2.770983478579e+01 0.000000000000e+00 
2.777706646576e+01 0.000000000000e+00 
2.801638035801e+01 0.000000000000e+00 
2.808054657996e+01 0.000000000000e+00 
2.831986047221e+01 0.000000000000e+00 
2.838099189233e+01 0.000000000000e+00 
2.862030578457e+01 0.000000000000e+00 
2.867843275254e+01 0.000000000000e+00 
2.891774664479e+01 0.000000000000e+00 
2.897289920472e+01 0.000000000000e+00 
2.921221309697e+01 0.000000000000e+00 
2.926442099350e+01 0.000000000000e+00 
2.950373488575e+01 0.000000000000e+00 
2.955302756476e+01 0.000000000000e+00 
2.979234145701e+01 0.000000000000e+00 
2.983874806900e+01 0.000000000000e+00 
3.007806196125e+01 0.000000000000e+00 
3.012161136723e+01 0.000000000000e+00 
3.036092525948e+01 0.000000000000e+00 
3.040164603151e+01 0.000000000000e+00 
3.064095992376e+01 0.000000000000e+00 
3.067888034814e+01 0.000000000000e+00 
3.091819424039e+01 0.000000000000e+00 
3.095334232336e+01 0.000000000000e+00 
3.119265621561e+01 0.000000000000e+00 
3.122505968109e+01 0.000000000000e+00 
3.146437357334e+01 0.000000000000e+00 
3.149405986600e+01 0.000000000000e+00 
3.173337375825e+01 0.000000000000e+00 
3.176037004904e+01 0.000000000000e+00 
3.199968394129e+01 0.000000000000e+00 
3.202401712764e+01 0.000000000000e+00 
3.226333101989e+01 0.000000000000e+00 
3.228502773390e+01 0.000000000000e+00 
3.252434162615e+01 0.000000000000e+00 
3.254342823448e+01 0.000000000000e+00 
3.278274212673e+01 0.000000000000e+00 
3.279924473091e+01 0.000000000000e+00 
3.303855862316e+01 0.000000000000e+00 
3.305250306211e+01 0.000000000000e+00 
3.329181695436e+01 0.000000000000e+00 
3.330322880970e+01 0.000000000000e+00 
3.354254270195e+01 0.000000000000e+00 
3.355144730046e+01 0.000000000000e+00 
3.379076119271e+01 0.000000000000e+00 
3.379718360630e+01 0.000000000000e+00 
3.403649749855e+01 0.000000000000e+00 
3.404046254923e+01 0.000000000000e+00 
3.427977644148e+01 0.000000000000e+00 
3.428130870384e+01 0.000000000000e+00 
3.451974639693e+01 0.000000000000e+00 
3.452062259609e+01 0.000000000000e+00 
3.475579971253e+01 0.000000000000e+00 
3.475906028918e+01 0.000000000000e+00 
3.498949249408e+01 0.000000000000e+00 
3.499511360478e+01 0.000000000000e+00 
3.522084834665e+01 0.000000000000e+00 
3.522880638633e+01 0.000000000000e+00 
3.544989064168e+01 0.000000000000e+00 
3.546016223890e+01 0.000000000000e+00 
3.567664251383e+01 0.000000000000e+00 
3.568920453393e+01 0.000000000000e+00 
3.590112686835e+01 0.000000000000e+00 
3.591595640608e+01 0.000000000000e+00 
3.612336638034e+01 0.000000000000e+00 
3.614044076060e+01 0.000000000000e+00 
3.634338349686e+01 0.000000000000e+00 
3.636268027259e+01 0.000000000000e+00 
3.656120044137e+01 0.000000000000e+00 
3.658269738911e+01 0.000000000000e+00 
3.677683921562e+01 0.000000000000e+00 
3.680051433362e+01 0.000000000000e+00 
3.699032160147e+01 0.000000000000e+00 
3.701615310787e+01 0.000000000000e+00 
3.720166916270e+01 0.000000000000e+00 
3.722963549372e+01 0.000000000000e+00 
3.741090324930e+01 0.000000000000e+00 
3.744098305495e+01 0.000000000000e+00 
3.761804499658e+01 0.000000000000e+00 
3.765021714155e+01 0.000000000000e+00 
3.782311532682e+01 0.000000000000e+00 
3.785735888883e+01 0.000000000000e+00 
3.802613495351e+01 0.000000000000e+00 
3.806242921907e+01 0.000000000000e+00 
3.822712438290e+01 0.000000000000e+00 
3.826544884576e+01 0.000000000000e+00 
3.842610391816e+01 0.000000000000e+00 
3.846643827515e+01 0.000000000000e+00 
3.862309365819e+01 0.000000000000e+00 
3.866541781041e+01 0.000000000000e+00 
3.881811350172e+01 0.000000000000e+00 
3.886240755044e+01 0.000000000000e+00 
3.901118314870e+01 0.000000000000e+00 
3.905742739397e+01 0.000000000000e+00 
3.920232209912e+01 0.000000000000e+00 
3.925049704095e+01 0.000000000000e+00 
3.939154965930e+01 0.000000000000e+00 
3.944163599137e+01 0.000000000000e+00 
3.957888494355e+01 0.000000000000e+00 
3.963086355155e+01 0.000000000000e+00 
3.976434687515e+01 0.000000000000e+00 
3.981819883580e+01 0.000000000000e+00 
3.994795418762e+01 0.000000000000e+00 
4.000366076740e+01 0.000000000000e+00 
4.012972542589e+01 0.000000000000e+00 
4.018726807987e+01 0.000000000000e+00 
4.030967895007e+01 0.000000000000e+00 
4.036903931814e+01 0.000000000000e+00 
4.048783293913e+01 0.000000000000e+00 
4.054899284232e+01 0.000000000000e+00 
4.066420538929e+01 0.000000000000e+00 
4.072714683138e+01 0.000000000000e+00 
4.083881411510e+01 0.000000000000e+00 
4.090351928154e+01 0.000000000000e+00 
4.101167675302e+01 0.000000000000e+00 
4.107812800735e+01 0.000000000000e+00 
4.118281076498e+01 0.000000000000e+00 
4.125099064527e+01 0.000000000000e+00 
4.135223343664e+01 0.000000000000e+00 
4.142212465722e+01 0.000000000000e+00 
4.151996188097e+01 0.000000000000e+00 
4.159154732889e+01 0.000000000000e+00 
4.168601304159e+01 0.000000000000e+00 
4.175927577322e+01 0.000000000000e+00 
4.185040369101e+01 0.000000000000e+00 
4.192532693384e+01 0.000000000000e+00 
4.201315043404e+01 0.000000000000e+00 
4.208971758326e+01 0.000000000000e+00 
4.217426970847e+01 0.000000000000e+00 
4.225246432629e+01 0.000000000000e+00 
4.233377779109e+01 0.000000000000e+00 
4.241358360072e+01 0.000000000000e+00 
4.249169079298e+01 0.000000000000e+00 
4.257309168334e+01 0.000000000000e+00 
4.264802466295e+01 0.000000000000e+00 
4.273100468523e+01 0.000000000000e+00 
4.280279519586e+01 0.000000000000e+00 
4.288733855520e+01 0.000000000000e+00 
4.295601802533e+01 0.000000000000e+00 
4.304210908811e+01 0.000000000000e+00 
4.310770862698e+01 0.000000000000e+00 
4.319533191758e+01 0.000000000000e+00 
4.325788232150e+01 0.000000000000e+00 
4.334702251923e+01 0.000000000000e+00 
4.340655427782e+01 0.000000000000e+00 
4.349719621375e+01 0.000000000000e+00 
4.355373951344e+01 0.000000000000e+00 
4.364586817007e+01 0.000000000000e+00 
4.369945289756e+01 0.000000000000e+00 
4.379305340569e+01 0.000000000000e+00 
4.384370914873e+01 0.000000000000e+00 
4.393876678981e+01 0.000000000000e+00 
4.398652283534e+01 0.000000000000e+00 
4.408302304098e+01 0.000000000000e+00 
4.412790838637e+01 0.000000000000e+00 
4.422583672759e+01 0.000000000000e+00 
4.426788008372e+01 0.000000000000e+00 
4.436722227862e+01 0.000000000000e+00 
4.440645206263e+01 0.000000000000e+00 
4.450719397597e+01 0.000000000000e+00 
4.454363832236e+01 0.000000000000e+00 
4.464576595488e+01 0.000000000000e+00 
4.467945272107e+01 0.000000000000e+00 
4.478295221461e+01 0.000000000000e+00 
4.481390897345e+01 0.000000000000e+00 
4.491876661332e+01 0.000000000000e+00 
4.494702066141e+01 0.000000000000e+00 
4.505322286570e+01 0.000000000000e+00 
4.507880123407e+01 0.000000000000e+00 
4.518633455366e+01 0.000000000000e+00 
4.520926400266e+01 0.000000000000e+00 
4.531811512632e+01 0.000000000000e+00 
4.533842214326e+01 0.000000000000e+00 
4.544857789491e+01 0.000000000000e+00 
4.546628870205e+01 0.000000000000e+00 
4.557773603551e+01 0.000000000000e+00 
4.559287659532e+01 0.000000000000e+00 
4.570560259430e+01 0.000000000000e+00 
4.571819860945e+01 0.000000000000e+00 
4.583219048757e+01 0.000000000000e+00 
4.584226740354e+01 0.000000000000e+00 
4.595751250170e+01 0.000000000000e+00 
4.596509550929e+01 0.000000000000e+00 
4.608158129579e+01 0.000000000000e+00 
4.608669533355e+01 0.000000000000e+00 
4.620440940154e+01 0.000000000000e+00 
4.620707916085e+01 0.000000000000e+00 
4.632600922580e+01 0.000000000000e+00 
4.632625915058e+01 0.000000000000e+00 
4.644424733953e+01 0.000000000000e+00 
4.644639305310e+01 0.000000000000e+00 
4.656105564689e+01 0.000000000000e+00 
4.656557304283e+01 0.000000000000e+00 
4.667669587142e+01 0.000000000000e+00 
4.668356123178e+01 0.000000000000e+00 
4.679117969384e+01 0.000000000000e+00 
4.680036953914e+01 0.000000000000e+00 
4.690451867657e+01 0.000000000000e+00 
4.691600976367e+01 0.000000000000e+00 
4.701672426873e+01 0.000000000000e+00 
4.703049358609e+01 0.000000000000e+00 
4.712780780571e+01 0.000000000000e+00 
4.714383256882e+01 0.000000000000e+00 
4.723778050635e+01 0.000000000000e+00 
4.725603816098e+01 0.000000000000e+00 
4.734665348038e+01 0.000000000000e+00 
4.736712169796e+01 0.000000000000e+00 
4.745443772543e+01 0.000000000000e+00 
4.747709439860e+01 0.000000000000e+00 
4.756114412662e+01 0.000000000000e+00 
4.758596737263e+01 0.000000000000e+00 
4.766678346409e+01 0.000000000000e+00 
4.769375161768e+01 0.000000000000e+00 
4.777136640976e+01 0.000000000000e+00 
4.780045801887e+01 0.000000000000e+00 
4.787490352442e+01 0.000000000000e+00 
4.790609735634e+01 0.000000000000e+00 
4.797740526767e+01 0.000000000000e+00 
4.801068030201e+01 0.000000000000e+00 
4.807888199470e+01 0.000000000000e+00 
4.811421741667e+01 0.000000000000e+00 
4.817934395327e+01 0.000000000000e+00 
4.821671915991e+01 0.000000000000e+00 
4.827880129362e+01 0.000000000000e+00 
4.831819588695e+01 0.000000000000e+00 
4.837726406251e+01 0.000000000000e+00 
4.841865784552e+01 0.000000000000e+00 
4.847474220286e+01 0.000000000000e+00 
4.851811518586e+01 0.000000000000e+00 
4.857124556084e+01 0.000000000000e+00 
4.861657795476e+01 0.000000000000e+00 
4.866678388532e+01 0.000000000000e+00 
4.871405609511e+01 0.000000000000e+00 
4.876136682713e+01 0.000000000000e+00 
4.881055945309e+01 0.000000000000e+00 
4.885500393849e+01 0.000000000000e+00 
4.890609777757e+01 0.000000000000e+00 
4.894770467751e+01 0.000000000000e+00 
4.900068071938e+01 0.000000000000e+00 
4.903947841009e+01 0.000000000000e+00 
4.909431783074e+01 0.000000000000e+00 
4.913033440656e+01 0.000000000000e+00 
4.918701856976e+01 0.000000000000e+00 
4.922028184360e+01 0.000000000000e+00 
4.927879230234e+01 0.000000000000e+00 
4.930932980605e+01 0.000000000000e+00 
4.936964829881e+01 0.000000000000e+00 
4.939748728882e+01 0.000000000000e+00 
4.945959573585e+01 0.000000000000e+00 
4.948476319598e+01 0.000000000000e+00 
4.954864369830e+01 0.000000000000e+00 
4.957116634265e+01 0.000000000000e+00 
4.963680118107e+01 0.000000000000e+00 
4.965670545935e+01 0.000000000000e+00 
4.972407708823e+01 0.000000000000e+00 
4.974138918588e+01 0.000000000000e+00 
4.981048023490e+01 0.000000000000e+00 
4.982522607314e+01 0.000000000000e+00 
4.989601935160e+01 0.000000000000e+00 
4.990822459007e+01 0.000000000000e+00 
4.998070307813e+01 0.000000000000e+00 
4.999039312271e+01 0.000000000000e+00 
5.006453996539e+01 0.000000000000e+00 
5.007173997064e+01 0.000000000000e+00 
5.014753848232e+01 0.000000000000e+00 
5.015227335136e+01 0.000000000000e+00 
5.022970701496e+01 0.000000000000e+00 
5.023200139921e+01 0.000000000000e+00 
5.031093216452e+01 0.000000000000e+00 
5.031105386289e+01 0.000000000000e+00 
5.038907362042e+01 0.000000000000e+00 
5.039158724361e+01 0.000000000000e+00 
5.046643366184e+01 0.000000000000e+00 
5.047131529146e+01 0.000000000000e+00 
5.054302010443e+01 0.000000000000e+00 
5.055024605676e+01 0.000000000000e+00 
5.061884068355e+01 0.000000000000e+00 
5.062838751267e+01 0.000000000000e+00 
5.069390305587e+01 0.000000000000e+00 
5.070574755409e+01 0.000000000000e+00 
5.076821480353e+01 0.000000000000e+00 
5.078233399668e+01 0.000000000000e+00 
5.084178343563e+01 0.000000000000e+00 
5.085815457580e+01 0.000000000000e+00 
5.093321694812e+01 0.000000000000e+00 
5.100752869578e+01 0.000000000000e+00 
5.108109732788e+01 0.000000000000e+00 
 TITLE = "Profiles along polylines"
 VARIABLES = "DIST" "HEAD" 
 ZONE T="TIME=1.797693134862e+308"
1.584178343563e+01 3.332959354633e+01 
1.608109732788e+01 3.331918938276e+01 
1.626461637990e+01 3.332928736459e+01 
1.650393027215e+01 3.331888167661e+01 
1.668322099704e+01 3.332898707617e+01 
1.692253488929e+01 3.331857944250e+01 
1.709763956691e+01 3.332869247734e+01 
1.733695345916e+01 3.331828257829e+01 
1.750791395093e+01 3.332840339984e+01 
1.774722784318e+01 3.331799097094e+01 
1.791408559259e+01 3.332811969289e+01 
1.815339948483e+01 3.331770450373e+01 
1.831619551801e+01 3.332784121435e+01 
1.855550941026e+01 3.331742305961e+01 
1.871428434426e+01 3.332756782682e+01 
1.895359823651e+01 3.331714652276e+01 
1.910839228227e+01 3.332729939603e+01 
1.934770617452e+01 3.331687477930e+01 
1.949855913975e+01 3.332703579063e+01 
1.973787303200e+01 3.331660771763e+01 
1.988482432661e+01 3.332677688229e+01 
2.012413821886e+01 3.331634522861e+01 
2.026722686291e+01 3.332652254606e+01 
2.050654075516e+01 3.331608720562e+01 
2.064580537355e+01 3.332627266069e+01 
2.088511926579e+01 3.331583354472e+01 
2.102059809889e+01 3.332602710888e+01 
2.125991199114e+01 3.331558414463e+01 
2.139164289704e+01 3.332578577741e+01 
2.163095678929e+01 3.331533890678e+01 
2.175897724641e+01 3.332554855724e+01 
2.199829113866e+01 3.331509773538e+01 
2.212263825317e+01 3.332531534348e+01 
2.236195214542e+01 3.331486053736e+01 
2.248266264835e+01 3.332508603530e+01 
2.272197654060e+01 3.331462722236e+01 
2.283908680046e+01 3.332486053587e+01 
2.307840069271e+01 3.331439770275e+01 
2.319194671232e+01 3.332463875217e+01 
2.343126060457e+01 3.331417189351e+01 
2.354127802579e+01 3.332442059483e+01 
2.378059191804e+01 3.331394971225e+01 
2.388711602628e+01 3.332420597800e+01 
2.412642991853e+01 3.331373107906e+01 
2.422949564472e+01 3.332399481915e+01 
2.446880953697e+01 3.331351591650e+01 
2.456845146717e+01 3.332378703885e+01 
2.480776535942e+01 3.331330414952e+01 
2.490401773130e+01 3.332358256067e+01 
2.514333162355e+01 3.331309570534e+01 
2.523622833341e+01 3.332338131100e+01 
2.547554222566e+01 3.331289051337e+01 
2.556511682989e+01 3.332318321882e+01 
2.580443072214e+01 3.331268850518e+01 
2.589071644155e+01 3.332298821567e+01 
2.613003033380e+01 3.331248961437e+01 
2.621306005753e+01 3.332279623540e+01 
2.645237394978e+01 3.331229377650e+01 
2.653218023688e+01 3.332260721410e+01 
2.677149412913e+01 3.331210092900e+01 
2.684810921500e+01 3.332242108994e+01 
2.708742310725e+01 3.331191101112e+01 
2.716087890235e+01 3.332223780311e+01 
2.740019279460e+01 3.331172396385e+01 
2.747052089354e+01 3.332205729565e+01 
2.770983478579e+01 3.331153972983e+01 
2.777706646576e+01 3.332187951137e+01 
2.801638035801e+01 3.331135825328e+01 
2.808054657996e+01 3.332170439579e+01 
2.831986047221e+01 3.331117947997e+01 
2.838099189233e+01 3.332153189600e+01 
2.862030578457e+01 3.331100335713e+01 
2.867843275254e+01 3.332136196064e+01 
2.891774664479e+01 3.331082983340e+01 
2.897289920472e+01 3.332119453977e+01 
2.921221309697e+01 3.331065885876e+01 
2.926442099350e+01 3.332102958483e+01 
2.950373488575e+01 3.331049038450e+01 
2.955302756476e+01 3.332086704860e+01 
2.979234145701e+01 3.331032436316e+01 
2.983874806900e+01 3.332070688507e+01 
3.007806196125e+01 3.331016074847e+01 
3.012161136723e+01 3.332054904945e+01 
3.036092525948e+01 3.330999949534e+01 
3.040164603151e+01 3.332039349811e+01 
3.064095992376e+01 3.330984055976e+01 
3.067888034814e+01 3.332024018850e+01 
3.091819424039e+01 3.330968389882e+01 
3.095334232336e+01 3.332008907912e+01 
3.119265621561e+01 3.330952947063e+01 
3.122505968109e+01 3.331994012948e+01 
3.146437357334e+01 3.330937723431e+01 
3.149405986600e+01 3.331979330009e+01 
3.173337375825e+01 3.330922714994e+01 
3.176037004904e+01 3.331964855236e+01 
3.199968394129e+01 3.330907917852e+01 
3.202401712764e+01 3.331950584863e+01 
3.226333101989e+01 3.330893328196e+01 
3.228502773390e+01 3.331936515207e+01 
3.252434162615e+01 3.330878942305e+01 
3.254342823448e+01 3.331922642674e+01 
3.278274212673e+01 3.330864756541e+01 
3.279924473091e+01 3.331908963745e+01 
3.303855862316e+01 3.330850767348e+01 
3.305250306211e+01 3.331895474984e+01 
3.329181695436e+01 3.330836971249e+01 
3.330322880970e+01 3.331882173028e+01 
3.354254270195e+01 3.330823364843e+01 
3.355144730046e+01 3.331869054587e+01 
3.379076119271e+01 3.330809944805e+01 
3.379718360630e+01 3.331856116444e+01 
3.403649749855e+01 3.330796707882e+01 
3.404046254923e+01 3.331843355448e+01 
3.427977644148e+01 3.330783650889e+01 
3.428130870384e+01 3.331830768516e+01 
3.451974639693e+01 3.331818352629e+01 
3.452062259609e+01 3.330770770712e+01 
3.475579971253e+01 3.331806104833e+01 
3.475906028918e+01 3.330758064301e+01 
3.498949249408e+01 3.331794022231e+01 
3.499511360478e+01 3.330745528672e+01 
3.522084834665e+01 3.331782101989e+01 
3.522880638633e+01 3.330733160902e+01 
3.544989064168e+01 3.331770341327e+01 
3.546016223890e+01 3.330720958132e+01 
3.567664251383e+01 3.331758737526e+01 
3.568920453393e+01 3.330708917558e+01 
3.590112686835e+01 3.331747287916e+01 
3.591595640608e+01 3.330697036437e+01 
3.612336638034e+01 3.331735989885e+01 
3.614044076060e+01 3.330685312083e+01 
3.634338349686e+01 3.331724840870e+01 
3.636268027259e+01 3.330673741862e+01 
3.656120044137e+01 3.331713838360e+01 
3.658269738911e+01 3.330662323196e+01 
3.677683921562e+01 3.331702979892e+01 
3.680051433362e+01 3.330651053558e+01 
3.699032160147e+01 3.331692263053e+01 
3.701615310787e+01 3.330639930474e+01 
3.720166916270e+01 3.331681685476e+01 
3.722963549372e+01 3.330628951517e+01 
3.741090324930e+01 3.331671244840e+01 
3.744098305495e+01 3.330618114312e+01 
3.761804499658e+01 3.331660938868e+01 
3.765021714155e+01 3.330607416529e+01 
3.782311532682e+01 3.331650765327e+01 
3.785735888883e+01 3.330596855884e+01 
3.802613495351e+01 3.331640722030e+01 
3.806242921907e+01 3.330586430142e+01 
3.822712438290e+01 3.331630806827e+01 
3.826544884576e+01 3.330576137109e+01 
3.842610391816e+01 3.331621017612e+01 
3.846643827515e+01 3.330565974635e+01 
3.862309365819e+01 3.331611352319e+01 
3.866541781041e+01 3.330555940615e+01 
3.881811350172e+01 3.331601808920e+01 
3.886240755044e+01 3.330546032982e+01 
3.901118314870e+01 3.331592385427e+01 
3.905742739397e+01 3.330536249712e+01 
3.920232209912e+01 3.331583079888e+01 
3.925049704095e+01 3.330526588820e+01 
3.939154965930e+01 3.331573890389e+01 
3.944163599137e+01 3.330517048360e+01 
3.957888494355e+01 3.331564815052e+01 
3.963086355155e+01 3.330507626425e+01 
3.976434687515e+01 3.331555852035e+01 
3.981819883580e+01 3.330498321145e+01 
3.994795418762e+01 3.331546999529e+01 
4.000366076740e+01 3.330489130686e+01 
4.012972542589e+01 3.331538255761e+01 
4.018726807987e+01 3.330480053250e+01 
4.030967895007e+01 3.331529618990e+01 
4.036903931814e+01 3.330471087075e+01 
4.048783293913e+01 3.331521087509e+01 
4.054899284232e+01 3.330462230433e+01 
4.066420538929e+01 3.331512659642e+01 
4.072714683138e+01 3.330453481630e+01 
4.083881411510e+01 3.331504333745e+01 
4.090351928154e+01 3.330444839003e+01 
4.101167675302e+01 3.331496108206e+01 
4.107812800735e+01 3.330436300925e+01 
4.118281076498e+01 3.331487981442e+01 
4.125099064527e+01 3.330427865798e+01 
4.135223343664e+01 3.331479951901e+01 
4.142212465722e+01 3.330419532057e+01 
4.151996188097e+01 3.331472018061e+01 
4.159154732889e+01 3.330411298166e+01 
4.168601304159e+01 3.331464178425e+01 
4.175927577322e+01 3.330403162620e+01 
4.185040369101e+01 3.331456431530e+01 
4.192532693384e+01 3.330395123943e+01 
4.201315043404e+01 3.331448775938e+01 
4.208971758326e+01 3.330387180688e+01 
4.217426970847e+01 3.331441210237e+01 
4.225246432629e+01 3.330379331435e+01 
4.233377779109e+01 3.331433733045e+01 
4.241358360072e+01 3.330371574795e+01 
4.249169079298e+01 3.331426343005e+01 
4.257309168334e+01 3.330363909401e+01 
4.264802466295e+01 3.331419038786e+01 
4.273100468523e+01 3.330356333918e+01 
4.280279519586e+01 3.331411819082e+01 
4.288733855520e+01 3.330348847033e+01 
4.295601802533e+01 3.331404682615e+01 
4.304210908811e+01 3.330341447461e+01 
4.310770862698e+01 3.331397628129e+01 
4.319533191758e+01 3.330334133941e+01 
4.325788232150e+01 3.331390654394e+01 
4.334702251923e+01 3.330326905236e+01 
4.340655427782e+01 3.331383760203e+01 
4.349719621375e+01 3.330319760135e+01 
4.355373951344e+01 3.331376944374e+01 
4.364586817007e+01 3.330312697448e+01 
4.369945289756e+01 3.331370205746e+01 
4.379305340569e+01 3.330305716010e+01 
4.384370914873e+01 3.331363543184e+01 
4.393876678981e+01 3.330298814679e+01 
4.398652283534e+01 3.331356955574e+01 
4.408302304098e+01 3.330291992333e+01 
4.412790838637e+01 3.331350441823e+01 
4.422583672759e+01 3.330285247873e+01 
4.426788008372e+01 3.331344000862e+01 
4.436722227862e+01 3.330278580221e+01 
4.440645206263e+01 3.331337631643e+01 
4.450719397597e+01 3.330271988320e+01 
4.454363832236e+01 3.331331333138e+01 
4.464576595488e+01 3.330265471134e+01 
4.467945272107e+01 3.331325104341e+01 
4.478295221461e+01 3.330259027646e+01 
4.481390897345e+01 3.331318944266e+01 
4.491876661332e+01 3.330252656857e+01 
4.494702066141e+01 3.331312851947e+01 
4.505322286570e+01 3.330246357790e+01 
4.507880123407e+01 3.331306826438e+01 
4.518633455366e+01 3.330240129484e+01 
4.520926400266e+01 3.331300866813e+01 
4.531811512632e+01 3.330233970999e+01 
4.533842214326e+01 3.331294972165e+01 
4.544857789491e+01 3.330227881409e+01 
4.546628870205e+01 3.331289141605e+01 
4.557773603551e+01 3.330221859809e+01 
4.559287659532e+01 3.331283374263e+01 
4.570560259430e+01 3.330215905309e+01 
4.571819860945e+01 3.331277669287e+01 
4.583219048757e+01 3.330210017035e+01 
4.584226740354e+01 3.331272025843e+01 
4.595751250170e+01 3.330204194130e+01 
4.596509550929e+01 3.331266443115e+01 
4.608158129579e+01 3.330198435754e+01 
4.608669533355e+01 3.331260920304e+01 
4.620440940154e+01 3.330192741079e+01 
4.620707916085e+01 3.331255456626e+01 
4.632600922580e+01 3.330187109296e+01 
4.632625915058e+01 3.331250051316e+01 
4.644424733953e+01 3.331244703623e+01 
4.644639305310e+01 3.330181539607e+01 
4.656105564689e+01 3.331239412814e+01 
4.656557304283e+01 3.330176031229e+01 
4.667669587142e+01 3.331234178170e+01 
4.668356123178e+01 3.330170583396e+01 
4.679117969384e+01 3.331228998986e+01 
4.680036953914e+01 3.330165195351e+01 
4.690451867657e+01 3.331223874575e+01 
4.691600976367e+01 3.330159866352e+01 
4.701672426873e+01 3.331218804261e+01 
4.703049358609e+01 3.330154595671e+01 
4.712780780571e+01 3.331213787383e+01 
4.714383256882e+01 3.330149382590e+01 
4.723778050635e+01 3.331208823295e+01 
4.725603816098e+01 3.330144226406e+01 
4.734665348038e+01 3.331203911362e+01 
4.736712169796e+01 3.330139126424e+01 
4.745443772543e+01 3.331199050963e+01 
4.747709439860e+01 3.330134081964e+01 
4.756114412662e+01 3.331194241490e+01 
4.758596737263e+01 3.330129092355e+01 
4.766678346409e+01 3.331189482346e+01 
4.769375161768e+01 3.330124156938e+01 
4.777136640976e+01 3.331184772945e+01 
4.780045801887e+01 3.330119275063e+01 
4.787490352442e+01 3.331180112715e+01 
4.790609735634e+01 3.330114446093e+01 
4.797740526767e+01 3.331175501091e+01 
4.801068030201e+01 3.330109669398e+01 
4.807888199470e+01 3.331170937522e+01 
4.811421741667e+01 3.330104944359e+01 
4.817934395327e+01 3.331166421463e+01 
4.821671915991e+01 3.330100270368e+01 
4.827880129362e+01 3.331161952383e+01 
4.831819588695e+01 3.330095646823e+01 
4.837726406251e+01 3.331157529757e+01 
4.841865784552e+01 3.330091073134e+01 
4.847474220286e+01 3.331153153068e+01 
4.851811518586e+01 3.330086548718e+01 
4.857124556084e+01 3.331148821811e+01 
4.861657795476e+01 3.330082073002e+01 
4.866678388532e+01 3.331144535484e+01 
4.871405609511e+01 3.330077645421e+01 
4.876136682713e+01 3.331140293596e+01 
4.881055945309e+01 3.330073265417e+01 
4.885500393849e+01 3.331136095661e+01 
4.890609777757e+01 3.330068932442e+01 
4.894770467751e+01 3.331131941200e+01 
4.900068071938e+01 3.330064645955e+01 
4.903947841009e+01 3.331127829739e+01 
4.909431783074e+01 3.330060405423e+01 
4.913033440656e+01 3.331123760809e+01 
4.918701856976e+01 3.330056210320e+01 
4.922028184360e+01 3.331119733949e+01 
4.927879230234e+01 3.330052060130e+01 
4.930932980605e+01 3.331115748699e+01 
4.936964829881e+01 3.330047954341e+01 
4.939748728882e+01 3.331111804604e+01 
4.945959573585e+01 3.330043892452e+01 
4.948476319598e+01 3.331107901214e+01 
4.954864369830e+01 3.330039873966e+01 
4.957116634265e+01 3.331104038080e+01 
4.963680118107e+01 3.330035898397e+01 
4.965670545935e+01 3.331100214757e+01 
4.972407708823e+01 3.330031965263e+01 
4.974138918588e+01 3.331096430802e+01 
4.981048023490e+01 3.330028074092e+01 
4.982522607314e+01 3.331092685774e+01 
4.989601935160e+01 3.330024224418e+01 
4.990822459007e+01 3.331088979231e+01 
4.998070307813e+01 3.330020415781e+01 
4.999039312271e+01 3.331085310734e+01 
5.006453996539e+01 3.330016647733e+01 
5.007173997064e+01 3.331081679845e+01 
5.014753848232e+01 3.330012919827e+01 
5.015227335136e+01 3.331078086123e+01 
5.022970701496e+01 3.330009231629e+01 
5.023200139921e+01 3.331074529130e+01 
5.031093216452e+01 3.331071008426e+01 
5.031105386289e+01 3.330005582710e+01 
5.038907362042e+01 3.331067523567e+01 
5.039158724361e+01 3.330001972648e+01 
5.046643366184e+01 3.331064074112e+01 
5.047131529146e+01 3.329998401032e+01 
5.054302010443e+01 3.331060659614e+01 
5.055024605676e+01 3.329994867454e+01 
5.061884068355e+01 3.331057279627e+01 
5.062838751267e+01 3.329991371518e+01 
5.069390305587e+01 3.331053933700e+01 
5.070574755409e+01 3.329987912835e+01 
5.076821480353e+01 3.331050621379e+01 
5.078233399668e+01 3.329984491023e+01 
5.084178343563e+01 3.331047342209e+01 
5.085815457580e+01 3.329981105710e+01 
5.093321694812e+01 3.329977756532e+01 
5.100752869578e+01 3.329974443133e+01 
5.108109732788e+01 3.329971165167e+01 
