 TITLE = "Profiles along polylines"
 VARIABLES = "DIST" "HEAD" 
 ZONE T="TIME=0.000000000000e+00"
2.973579427383e+00 0.000000000000e+00 
3.004233114150e+00 0.000000000000e+00 
3.034979528101e+00 0.000000000000e+00 
3.396412371649e+00 0.000000000000e+00 
3.427066058416e+00 0.000000000000e+00 
3.457812472367e+00 0.000000000000e+00 
3.815016988788e+00 0.000000000000e+00 
3.845670675555e+00 0.000000000000e+00 
3.876417089506e+00 0.000000000000e+00 
4.229435558658e+00 0.000000000000e+00 
4.260089245425e+00 0.000000000000e+00 
4.290835659376e+00 0.000000000000e+00 
4.639709942677e+00 0.000000000000e+00 
4.670363629445e+00 0.000000000000e+00 
4.701110043395e+00 0.000000000000e+00 
5.045881584330e+00 0.000000000000e+00 
5.076535271097e+00 0.000000000000e+00 
5.107281685048e+00 0.000000000000e+00 
5.447991509752e+00 0.000000000000e+00 
5.478645196519e+00 0.000000000000e+00 
5.509391610470e+00 0.000000000000e+00 
5.846080336001e+00 0.000000000000e+00 
5.876734022768e+00 0.000000000000e+00 
5.907480436719e+00 0.000000000000e+00 
6.240188274013e+00 0.000000000000e+00 
6.270841960781e+00 0.000000000000e+00 
6.301588374732e+00 0.000000000000e+00 
6.630355131495e+00 0.000000000000e+00 
6.661008818262e+00 0.000000000000e+00 
6.691755232213e+00 0.000000000000e+00 
7.016620318355e+00 0.000000000000e+00 
7.047274005122e+00 0.000000000000e+00 
7.078020419073e+00 0.000000000000e+00 
7.399022854646e+00 0.000000000000e+00 
7.429676541414e+00 0.000000000000e+00 
7.460422955365e+00 0.000000000000e+00 
7.777601365285e+00 0.000000000000e+00 
7.808255052052e+00 0.000000000000e+00 
7.839001466003e+00 0.000000000000e+00 
8.152394090629e+00 0.000000000000e+00 
8.183047777397e+00 0.000000000000e+00 
8.213794191348e+00 0.000000000000e+00 
8.523438888775e+00 0.000000000000e+00 
8.554092575542e+00 0.000000000000e+00 
8.584838989493e+00 0.000000000000e+00 
8.890773238147e+00 0.000000000000e+00 
8.921426924914e+00 0.000000000000e+00 
8.952173338865e+00 0.000000000000e+00 
9.254434244908e+00 0.000000000000e+00 
9.285087931676e+00 0.000000000000e+00 
9.315834345627e+00 0.000000000000e+00 
9.614458640085e+00 0.000000000000e+00 
9.645112326852e+00 0.000000000000e+00 
9.675858740803e+00 0.000000000000e+00 
9.970882792196e+00 0.000000000000e+00 
1.000153647896e+01 0.000000000000e+00 
1.003228289291e+01 0.000000000000e+00 
1.032374270406e+01 0.000000000000e+00 
1.035439639082e+01 0.000000000000e+00 
1.038514280477e+01 0.000000000000e+00 
1.067307401753e+01 0.000000000000e+00 
1.070372770430e+01 0.000000000000e+00 
1.073447411825e+01 0.000000000000e+00 
1.101891201802e+01 0.000000000000e+00 
1.104956570479e+01 0.000000000000e+00 
1.108031211874e+01 0.000000000000e+00 
1.136129163645e+01 0.000000000000e+00 
1.139194532322e+01 0.000000000000e+00 
1.142269173717e+01 0.000000000000e+00 
1.170024745890e+01 0.000000000000e+00 
1.173090114567e+01 0.000000000000e+00 
1.176164755962e+01 0.000000000000e+00 
1.203581372303e+01 0.000000000000e+00 
1.206646740980e+01 0.000000000000e+00 
1.209721382375e+01 0.000000000000e+00 
1.236802432514e+01 0.000000000000e+00 
1.239867801191e+01 0.000000000000e+00 
1.242942442586e+01 0.000000000000e+00 
1.269691282162e+01 0.000000000000e+00 
1.272756650839e+01 0.000000000000e+00 
1.275831292234e+01 0.000000000000e+00 
1.302251243328e+01 0.000000000000e+00 
1.305316612004e+01 0.000000000000e+00 
1.308391253399e+01 0.000000000000e+00 
1.334485604926e+01 0.000000000000e+00 
1.337550973603e+01 0.000000000000e+00 
1.340625614998e+01 0.000000000000e+00 
1.366397622861e+01 0.000000000000e+00 
1.369462991538e+01 0.000000000000e+00 
1.372537632933e+01 0.000000000000e+00 
1.397990520673e+01 0.000000000000e+00 
1.401055889349e+01 0.000000000000e+00 
1.404130530744e+01 0.000000000000e+00 
1.429267489408e+01 0.000000000000e+00 
1.432332858084e+01 0.000000000000e+00 
1.435407499479e+01 0.000000000000e+00 
1.460231688527e+01 0.000000000000e+00 
1.463297057203e+01 0.000000000000e+00 
1.466371698598e+01 0.000000000000e+00 
1.490886245748e+01 0.000000000000e+00 
1.493951614425e+01 0.000000000000e+00 
1.497026255820e+01 0.000000000000e+00 
1.521234257168e+01 0.000000000000e+00 
1.524299625845e+01 0.000000000000e+00 
1.527374267240e+01 0.000000000000e+00 
1.551278788405e+01 0.000000000000e+00 
1.554344157082e+01 0.000000000000e+00 
1.557418798477e+01 0.000000000000e+00 
1.581022874426e+01 0.000000000000e+00 
1.584088243103e+01 0.000000000000e+00 
1.587162884498e+01 0.000000000000e+00 
1.610469519645e+01 0.000000000000e+00 
1.613534888321e+01 0.000000000000e+00 
1.616609529717e+01 0.000000000000e+00 
1.639621698522e+01 0.000000000000e+00 
1.642687067199e+01 0.000000000000e+00 
1.645761708594e+01 0.000000000000e+00 
1.668482355648e+01 0.000000000000e+00 
1.671547724325e+01 0.000000000000e+00 
1.674622365720e+01 0.000000000000e+00 
1.697054406072e+01 0.000000000000e+00 
1.700119774749e+01 0.000000000000e+00 
1.703194416144e+01 0.000000000000e+00 
1.725340735895e+01 0.000000000000e+00 
1.728406104572e+01 0.000000000000e+00 
1.731480745967e+01 0.000000000000e+00 
1.753344202323e+01 0.000000000000e+00 
1.756409571000e+01 0.000000000000e+00 
1.759484212395e+01 0.000000000000e+00 
1.781067633986e+01 0.000000000000e+00 
1.784133002663e+01 0.000000000000e+00 
1.787207644058e+01 0.000000000000e+00 
1.808513831508e+01 0.000000000000e+00 
1.811579200185e+01 0.000000000000e+00 
1.814653841580e+01 0.000000000000e+00 
1.835685567281e+01 0.000000000000e+00 
1.838750935958e+01 0.000000000000e+00 
1.841825577353e+01 0.000000000000e+00 
1.862585585772e+01 0.000000000000e+00 
1.865650954449e+01 0.000000000000e+00 
1.868725595844e+01 0.000000000000e+00 
1.889216604076e+01 0.000000000000e+00 
1.892281972752e+01 0.000000000000e+00 
1.895356614147e+01 0.000000000000e+00 
1.915581311936e+01 0.000000000000e+00 
1.918646680613e+01 0.000000000000e+00 
1.921721322008e+01 0.000000000000e+00 
1.941682372561e+01 0.000000000000e+00 
1.944747741238e+01 0.000000000000e+00 
1.947822382633e+01 0.000000000000e+00 
1.967522422620e+01 0.000000000000e+00 
1.970587791297e+01 0.000000000000e+00 
1.973662432692e+01 0.000000000000e+00 
1.993104072263e+01 0.000000000000e+00 
1.996169440940e+01 0.000000000000e+00 
1.999244082335e+01 0.000000000000e+00 
2.018429905383e+01 0.000000000000e+00 
2.021495274059e+01 0.000000000000e+00 
2.024569915454e+01 0.000000000000e+00 
2.043502480141e+01 0.000000000000e+00 
2.046567848818e+01 0.000000000000e+00 
2.049642490213e+01 0.000000000000e+00 
2.068324329218e+01 0.000000000000e+00 
2.071389697895e+01 0.000000000000e+00 
2.074464339290e+01 0.000000000000e+00 
2.092897959802e+01 0.000000000000e+00 
2.095963328478e+01 0.000000000000e+00 
2.099037969874e+01 0.000000000000e+00 
2.117225854095e+01 0.000000000000e+00 
2.120291222772e+01 0.000000000000e+00 
2.123365864167e+01 0.000000000000e+00 
2.141310469556e+01 0.000000000000e+00 
2.144375838232e+01 0.000000000000e+00 
2.147450479628e+01 0.000000000000e+00 
2.165154238865e+01 0.000000000000e+00 
2.168219607541e+01 0.000000000000e+00 
2.171294248936e+01 0.000000000000e+00 
2.188759570425e+01 0.000000000000e+00 
2.191824939102e+01 0.000000000000e+00 
2.194899580497e+01 0.000000000000e+00 
2.212128848580e+01 0.000000000000e+00 
2.215194217257e+01 0.000000000000e+00 
2.218268858652e+01 0.000000000000e+00 
2.235264433837e+01 0.000000000000e+00 
2.238329802514e+01 0.000000000000e+00 
2.241404443909e+01 0.000000000000e+00 
2.258168663340e+01 0.000000000000e+00 
2.261234032017e+01 0.000000000000e+00 
2.264308673412e+01 0.000000000000e+00 
2.280843850555e+01 0.000000000000e+00 
2.283909219232e+01 0.000000000000e+00 
2.286983860627e+01 0.000000000000e+00 
2.303292286007e+01 0.000000000000e+00 
2.306357654684e+01 0.000000000000e+00 
2.309432296079e+01 0.000000000000e+00 
2.325516237206e+01 0.000000000000e+00 
2.328581605883e+01 0.000000000000e+00 
2.331656247278e+01 0.000000000000e+00 
2.347517948859e+01 0.000000000000e+00 
2.350583317535e+01 0.000000000000e+00 
2.353657958930e+01 0.000000000000e+00 
2.369299643309e+01 0.000000000000e+00 
2.372365011986e+01 0.000000000000e+00 
2.375439653381e+01 0.000000000000e+00 
2.390863520734e+01 0.000000000000e+00 
2.393928889411e+01 0.000000000000e+00 
2.397003530806e+01 0.000000000000e+00 
2.412211759320e+01 0.000000000000e+00 
2.415277127996e+01 0.000000000000e+00 
2.418351769392e+01 0.000000000000e+00 
2.433346515442e+01 0.000000000000e+00 
2.436411884119e+01 0.000000000000e+00 
2.439486525514e+01 0.000000000000e+00 
2.454269924103e+01 0.000000000000e+00 
2.457335292779e+01 0.000000000000e+00 
2.460409934174e+01 0.000000000000e+00 
2.474984098831e+01 0.000000000000e+00 
2.478049467507e+01 0.000000000000e+00 
2.481124108902e+01 0.000000000000e+00 
2.495491131855e+01 0.000000000000e+00 
2.498556500531e+01 0.000000000000e+00 
2.501631141926e+01 0.000000000000e+00 
2.515793094523e+01 0.000000000000e+00 
2.518858463200e+01 0.000000000000e+00 
2.521933104595e+01 0.000000000000e+00 
2.535892037463e+01 0.000000000000e+00 
2.538957406139e+01 0.000000000000e+00 
2.542032047534e+01 0.000000000000e+00 
2.555789990989e+01 0.000000000000e+00 
2.558855359666e+01 0.000000000000e+00 
2.561930001061e+01 0.000000000000e+00 
2.575488964992e+01 0.000000000000e+00 
2.578554333669e+01 0.000000000000e+00 
2.581628975064e+01 0.000000000000e+00 
2.594990949345e+01 0.000000000000e+00 
2.598056318022e+01 0.000000000000e+00 
2.601130959417e+01 0.000000000000e+00 
2.614297914043e+01 0.000000000000e+00 
2.617363282719e+01 0.000000000000e+00 
2.620437924114e+01 0.000000000000e+00 
2.633411809085e+01 0.000000000000e+00 
2.636477177761e+01 0.000000000000e+00 
2.639551819157e+01 0.000000000000e+00 
2.652334565103e+01 0.000000000000e+00 
2.655399933780e+01 0.000000000000e+00 
2.658474575175e+01 0.000000000000e+00 
2.671068093528e+01 0.000000000000e+00 
2.674133462205e+01 0.000000000000e+00 
2.677208103600e+01 0.000000000000e+00 
2.689614286688e+01 0.000000000000e+00 
2.692679655364e+01 0.000000000000e+00 
2.695754296760e+01 0.000000000000e+00 
2.707975017935e+01 0.000000000000e+00 
2.711040386611e+01 0.000000000000e+00 
2.714115028006e+01 0.000000000000e+00 
2.726152141762e+01 0.000000000000e+00 
2.729217510439e+01 0.000000000000e+00 
2.732292151834e+01 0.000000000000e+00 
2.744147494180e+01 0.000000000000e+00 
2.747212862857e+01 0.000000000000e+00 
2.750287504252e+01 0.000000000000e+00 
2.761962893086e+01 0.000000000000e+00 
2.765028261763e+01 0.000000000000e+00 
2.768102903158e+01 0.000000000000e+00 
2.779600138103e+01 0.000000000000e+00 
2.782665506779e+01 0.000000000000e+00 
2.785740148174e+01 0.000000000000e+00 
2.797061010683e+01 0.000000000000e+00 
2.800126379360e+01 0.000000000000e+00 
2.803201020755e+01 0.000000000000e+00 
2.814347274475e+01 0.000000000000e+00 
2.817412643152e+01 0.000000000000e+00 
2.820487284547e+01 0.000000000000e+00 
2.831460675671e+01 0.000000000000e+00 
2.834526044348e+01 0.000000000000e+00 
2.837600685743e+01 0.000000000000e+00 
2.848402942838e+01 0.000000000000e+00 
2.851468311514e+01 0.000000000000e+00 
2.854542952910e+01 0.000000000000e+00 
2.865175787271e+01 0.000000000000e+00 
2.868241155947e+01 0.000000000000e+00 
2.871315797342e+01 0.000000000000e+00 
2.881780903332e+01 0.000000000000e+00 
2.884846272009e+01 0.000000000000e+00 
2.887920913404e+01 0.000000000000e+00 
2.898219968275e+01 0.000000000000e+00 
2.901285336952e+01 0.000000000000e+00 
2.904359978347e+01 0.000000000000e+00 
2.914494642577e+01 0.000000000000e+00 
2.917560011254e+01 0.000000000000e+00 
2.920634652649e+01 0.000000000000e+00 
2.930606570020e+01 0.000000000000e+00 
2.933671938697e+01 0.000000000000e+00 
2.936746580092e+01 0.000000000000e+00 
2.946557378282e+01 0.000000000000e+00 
2.949622746959e+01 0.000000000000e+00 
2.952697388354e+01 0.000000000000e+00 
2.962348678472e+01 0.000000000000e+00 
2.965414047148e+01 0.000000000000e+00 
2.968488688543e+01 0.000000000000e+00 
2.977982065469e+01 0.000000000000e+00 
2.981047434146e+01 0.000000000000e+00 
2.984122075541e+01 0.000000000000e+00 
2.993459118760e+01 0.000000000000e+00 
2.996524487437e+01 0.000000000000e+00 
2.999599128832e+01 0.000000000000e+00 
3.008781401707e+01 0.000000000000e+00 
3.011846770384e+01 0.000000000000e+00 
3.014921411779e+01 0.000000000000e+00 
3.023950461872e+01 0.000000000000e+00 
3.027015830548e+01 0.000000000000e+00 
3.030090471943e+01 0.000000000000e+00 
3.038967831324e+01 0.000000000000e+00 
3.042033200001e+01 0.000000000000e+00 
3.045107841396e+01 0.000000000000e+00 
3.053835026956e+01 0.000000000000e+00 
3.056900395632e+01 0.000000000000e+00 
3.059975037027e+01 0.000000000000e+00 
3.068553550518e+01 0.000000000000e+00 
3.071618919194e+01 0.000000000000e+00 
3.074693560589e+01 0.000000000000e+00 
3.083124888929e+01 0.000000000000e+00 
3.086190257606e+01 0.000000000000e+00 
3.089264899001e+01 0.000000000000e+00 
3.097550514047e+01 0.000000000000e+00 
3.100615882723e+01 0.000000000000e+00 
3.103690524118e+01 0.000000000000e+00 
3.111831882708e+01 0.000000000000e+00 
3.114897251385e+01 0.000000000000e+00 
3.117971892780e+01 0.000000000000e+00 
3.125970437811e+01 0.000000000000e+00 
3.129035806487e+01 0.000000000000e+00 
3.132110447883e+01 0.000000000000e+00 
3.139967607546e+01 0.000000000000e+00 
3.143032976222e+01 0.000000000000e+00 
3.146107617617e+01 0.000000000000e+00 
3.153824805437e+01 0.000000000000e+00 
3.156890174114e+01 0.000000000000e+00 
3.159964815509e+01 0.000000000000e+00 
3.167543431410e+01 0.000000000000e+00 
3.170608800087e+01 0.000000000000e+00 
3.173683441482e+01 0.000000000000e+00 
3.181124871281e+01 0.000000000000e+00 
3.184190239957e+01 0.000000000000e+00 
3.187264881352e+01 0.000000000000e+00 
3.194570496519e+01 0.000000000000e+00 
3.197635865195e+01 0.000000000000e+00 
3.200710506590e+01 0.000000000000e+00 
3.207881665315e+01 0.000000000000e+00 
3.210947033991e+01 0.000000000000e+00 
3.214021675386e+01 0.000000000000e+00 
3.221059722581e+01 0.000000000000e+00 
3.224125091257e+01 0.000000000000e+00 
3.227199732653e+01 0.000000000000e+00 
3.234105999440e+01 0.000000000000e+00 
3.237171368117e+01 0.000000000000e+00 
3.240246009512e+01 0.000000000000e+00 
3.247021813500e+01 0.000000000000e+00 
3.250087182177e+01 0.000000000000e+00 
3.253161823572e+01 0.000000000000e+00 
3.259808469379e+01 0.000000000000e+00 
3.262873838056e+01 0.000000000000e+00 
3.265948479451e+01 0.000000000000e+00 
3.272467258706e+01 0.000000000000e+00 
3.275532627382e+01 0.000000000000e+00 
3.278607268778e+01 0.000000000000e+00 
3.284999460120e+01 0.000000000000e+00 
3.288064828796e+01 0.000000000000e+00 
3.291139470191e+01 0.000000000000e+00 
3.297406339528e+01 0.000000000000e+00 
3.300471708205e+01 0.000000000000e+00 
3.303546349600e+01 0.000000000000e+00 
3.309689150103e+01 0.000000000000e+00 
3.312754518779e+01 0.000000000000e+00 
3.315829160175e+01 0.000000000000e+00 
3.321849132529e+01 0.000000000000e+00 
3.324914501206e+01 0.000000000000e+00 
3.327989142601e+01 0.000000000000e+00 
3.333887515259e+01 0.000000000000e+00 
3.336952883936e+01 0.000000000000e+00 
3.340027525331e+01 0.000000000000e+00 
3.345805514232e+01 0.000000000000e+00 
3.348870882909e+01 0.000000000000e+00 
3.351945524304e+01 0.000000000000e+00 
3.357604333127e+01 0.000000000000e+00 
3.360669701804e+01 0.000000000000e+00 
3.363744343199e+01 0.000000000000e+00 
3.369285163863e+01 0.000000000000e+00 
3.372350532540e+01 0.000000000000e+00 
3.375425173935e+01 0.000000000000e+00 
3.380849186316e+01 0.000000000000e+00 
3.383914554993e+01 0.000000000000e+00 
3.386989196388e+01 0.000000000000e+00 
3.392297568558e+01 0.000000000000e+00 
3.395362937235e+01 0.000000000000e+00 
3.398437578630e+01 0.000000000000e+00 
3.403631466831e+01 0.000000000000e+00 
3.406696835508e+01 0.000000000000e+00 
3.409771476903e+01 0.000000000000e+00 
3.414852026047e+01 0.000000000000e+00 
3.417917394724e+01 0.000000000000e+00 
3.420992036119e+01 0.000000000000e+00 
3.425960379745e+01 0.000000000000e+00 
3.429025748422e+01 0.000000000000e+00 
3.432100389817e+01 0.000000000000e+00 
3.436957649809e+01 0.000000000000e+00 
3.440023018486e+01 0.000000000000e+00 
3.443097659881e+01 0.000000000000e+00 
3.447844947213e+01 0.000000000000e+00 
3.450910315889e+01 0.000000000000e+00 
3.453984957285e+01 0.000000000000e+00 
3.458623371717e+01 0.000000000000e+00 
3.461688740394e+01 0.000000000000e+00 
3.464763381789e+01 0.000000000000e+00 
3.469294011837e+01 0.000000000000e+00 
3.472359380514e+01 0.000000000000e+00 
3.475434021909e+01 0.000000000000e+00 
3.479857945583e+01 0.000000000000e+00 
3.482923314260e+01 0.000000000000e+00 
3.485997955655e+01 0.000000000000e+00 
3.490316240151e+01 0.000000000000e+00 
3.493381608828e+01 0.000000000000e+00 
3.496456250223e+01 0.000000000000e+00 
3.500669951617e+01 0.000000000000e+00 
3.503735320293e+01 0.000000000000e+00 
3.506809961689e+01 0.000000000000e+00 
3.510920125941e+01 0.000000000000e+00 
3.513985494618e+01 0.000000000000e+00 
3.517060136013e+01 0.000000000000e+00 
3.521067798644e+01 0.000000000000e+00 
3.524133167321e+01 0.000000000000e+00 
3.527207808716e+01 0.000000000000e+00 
3.531113994502e+01 0.000000000000e+00 
3.534179363179e+01 0.000000000000e+00 
3.537254004574e+01 0.000000000000e+00 
3.541059728536e+01 0.000000000000e+00 
3.544125097213e+01 0.000000000000e+00 
3.547199738608e+01 0.000000000000e+00 
3.550906005426e+01 0.000000000000e+00 
3.553971374103e+01 0.000000000000e+00 
3.557046015498e+01 0.000000000000e+00 
3.560653819460e+01 0.000000000000e+00 
3.563719188137e+01 0.000000000000e+00 
3.566793829532e+01 0.000000000000e+00 
3.570304155259e+01 0.000000000000e+00 
3.573369523935e+01 0.000000000000e+00 
3.576444165331e+01 0.000000000000e+00 
3.579857987706e+01 0.000000000000e+00 
3.582923356383e+01 0.000000000000e+00 
3.585997997778e+01 0.000000000000e+00 
3.589316281888e+01 0.000000000000e+00 
3.592381650565e+01 0.000000000000e+00 
3.595456291960e+01 0.000000000000e+00 
3.598679993024e+01 0.000000000000e+00 
3.601745361701e+01 0.000000000000e+00 
3.604820003096e+01 0.000000000000e+00 
3.607950066926e+01 0.000000000000e+00 
3.611015435602e+01 0.000000000000e+00 
3.614090076998e+01 0.000000000000e+00 
3.617127440183e+01 0.000000000000e+00 
3.620192808860e+01 0.000000000000e+00 
3.623267450255e+01 0.000000000000e+00 
3.626213039830e+01 0.000000000000e+00 
3.629278408507e+01 0.000000000000e+00 
3.632353049902e+01 0.000000000000e+00 
3.635207783534e+01 0.000000000000e+00 
3.638273152211e+01 0.000000000000e+00 
3.641347793606e+01 0.000000000000e+00 
3.644112579780e+01 0.000000000000e+00 
3.647177948457e+01 0.000000000000e+00 
3.650252589852e+01 0.000000000000e+00 
3.652928328057e+01 0.000000000000e+00 
3.655993696734e+01 0.000000000000e+00 
3.659068338129e+01 0.000000000000e+00 
3.661655918772e+01 0.000000000000e+00 
3.664721287449e+01 0.000000000000e+00 
3.667795928844e+01 0.000000000000e+00 
3.670296233440e+01 0.000000000000e+00 
3.673361602116e+01 0.000000000000e+00 
3.676436243511e+01 0.000000000000e+00 
3.678850145110e+01 0.000000000000e+00 
3.681915513787e+01 0.000000000000e+00 
3.684990155182e+01 0.000000000000e+00 
3.687318517763e+01 0.000000000000e+00 
3.690383886440e+01 0.000000000000e+00 
3.693458527835e+01 0.000000000000e+00 
3.695702206489e+01 0.000000000000e+00 
3.698767575165e+01 0.000000000000e+00 
3.701842216560e+01 0.000000000000e+00 
3.704002058182e+01 0.000000000000e+00 
3.707067426858e+01 0.000000000000e+00 
3.710142068253e+01 0.000000000000e+00 
3.712218911445e+01 0.000000000000e+00 
3.715284280122e+01 0.000000000000e+00 
3.718358921517e+01 0.000000000000e+00 
3.720353596239e+01 0.000000000000e+00 
3.723418964916e+01 0.000000000000e+00 
3.726493606311e+01 0.000000000000e+00 
3.728406934311e+01 0.000000000000e+00 
3.731472302987e+01 0.000000000000e+00 
3.734546944383e+01 0.000000000000e+00 
3.736379739096e+01 0.000000000000e+00 
3.739445107772e+01 0.000000000000e+00 
3.742519749167e+01 0.000000000000e+00 
3.744272815626e+01 0.000000000000e+00 
3.747338184303e+01 0.000000000000e+00 
3.750412825698e+01 0.000000000000e+00 
3.752086961217e+01 0.000000000000e+00 
3.755152329894e+01 0.000000000000e+00 
3.758226971289e+01 0.000000000000e+00 
3.759822965359e+01 0.000000000000e+00 
3.762888334036e+01 0.000000000000e+00 
3.765962975431e+01 0.000000000000e+00 
3.767481609618e+01 0.000000000000e+00 
3.770546978295e+01 0.000000000000e+00 
3.773621619690e+01 0.000000000000e+00 
3.775063667530e+01 0.000000000000e+00 
3.778129036207e+01 0.000000000000e+00 
3.781203677602e+01 0.000000000000e+00 
3.782569904762e+01 0.000000000000e+00 
3.785635273439e+01 0.000000000000e+00 
3.788709914834e+01 0.000000000000e+00 
3.790001079528e+01 0.000000000000e+00 
3.793066448205e+01 0.000000000000e+00 
3.796141089600e+01 0.000000000000e+00 
3.797357942738e+01 0.000000000000e+00 
3.800423311415e+01 0.000000000000e+00 
3.803497952810e+01 0.000000000000e+00 
 TITLE = "Profiles along polylines"
 VARIABLES = "DIST" "HEAD" 
 ZONE T="TIME=1.797693134862e+308"
2.973579427383e+00 3.437384530393e+01 
3.004233114150e+00 3.437258870856e+01 
3.034979528101e+00 3.437131536174e+01 
3.396412371649e+00 3.437370848736e+01 
3.427066058416e+00 3.437245178093e+01 
3.457812472367e+00 3.437117832270e+01 
3.815016988788e+00 3.437357454679e+01 
3.845670675555e+00 3.437231773040e+01 
3.876417089506e+00 3.437104416188e+01 
4.229435558658e+00 3.437344342424e+01 
4.260089245425e+00 3.437218649899e+01 
4.290835659376e+00 3.437091282128e+01 
4.639709942677e+00 3.437331506208e+01 
4.670363629445e+00 3.437205802906e+01 
4.701110043395e+00 3.437078424324e+01 
5.045881584330e+00 3.437318940372e+01 
5.076535271097e+00 3.437193226399e+01 
5.107281685048e+00 3.437065837116e+01 
5.447991509752e+00 3.437306639374e+01 
5.478645196519e+00 3.437180914838e+01 
5.509391610470e+00 3.437053514960e+01 
5.846080336001e+00 3.437294597790e+01 
5.876734022768e+00 3.437168862797e+01 
5.907480436719e+00 3.437041452429e+01 
6.240188274013e+00 3.437282810308e+01 
6.270841960781e+00 3.437157064962e+01 
6.301588374732e+00 3.437029644210e+01 
6.630355131495e+00 3.437271271724e+01 
6.661008818262e+00 3.437145516129e+01 
6.691755232213e+00 3.437018085096e+01 
7.016620318355e+00 3.437259976940e+01 
7.047274005122e+00 3.437134211198e+01 
7.078020419073e+00 3.437006769988e+01 
7.399022854646e+00 3.437248920963e+01 
7.429676541414e+00 3.437123145175e+01 
7.460422955365e+00 3.436995693889e+01 
7.777601365285e+00 3.437238098898e+01 
7.808255052052e+00 3.437112313165e+01 
7.839001466003e+00 3.436984851904e+01 
8.152394090629e+00 3.437227505951e+01 
8.183047777397e+00 3.437101710374e+01 
8.213794191348e+00 3.436974239238e+01 
8.523438888775e+00 3.437217137427e+01 
8.554092575542e+00 3.437091332102e+01 
8.584838989493e+00 3.436963851189e+01 
8.890773238147e+00 3.437206988721e+01 
8.921426924914e+00 3.437081173747e+01 
8.952173338865e+00 3.436953683156e+01 
9.254434244908e+00 3.437197055325e+01 
9.285087931676e+00 3.437071230798e+01 
9.315834345627e+00 3.436943730625e+01 
9.614458640085e+00 3.437187332821e+01 
9.645112326852e+00 3.437061498837e+01 
9.675858740803e+00 3.436933989177e+01 
9.970882792196e+00 3.437177816879e+01 
1.000153647896e+01 3.437051973532e+01 
1.003228289291e+01 3.436924454482e+01 
1.032374270406e+01 3.437168503259e+01 
1.035439639082e+01 3.437042650643e+01 
1.038514280477e+01 3.436915122295e+01 
1.067307401753e+01 3.437159387804e+01 
1.070372770430e+01 3.437033526011e+01 
1.073447411825e+01 3.436905988459e+01 
1.101891201802e+01 3.437150466443e+01 
1.104956570479e+01 3.437024595565e+01 
1.108031211874e+01 3.436897048900e+01 
1.136129163645e+01 3.437141735185e+01 
1.139194532322e+01 3.437015855314e+01 
1.142269173717e+01 3.436888299628e+01 
1.170024745890e+01 3.437133190124e+01 
1.173090114567e+01 3.437007301348e+01 
1.176164755962e+01 3.436879736732e+01 
1.203581372303e+01 3.437124827427e+01 
1.206646740980e+01 3.436998929837e+01 
1.209721382375e+01 3.436871356379e+01 
1.236802432514e+01 3.437116643345e+01 
1.239867801191e+01 3.436990737028e+01 
1.242942442586e+01 3.436863154816e+01 
1.269691282162e+01 3.437108634199e+01 
1.272756650839e+01 3.436982719242e+01 
1.275831292234e+01 3.436855128365e+01 
1.302251243328e+01 3.437100796388e+01 
1.305316612004e+01 3.436974872878e+01 
1.308391253399e+01 3.436847273422e+01 
1.334485604926e+01 3.437093126383e+01 
1.337550973603e+01 3.436967194406e+01 
1.340625614998e+01 3.436839586456e+01 
1.366397622861e+01 3.437085620726e+01 
1.369462991538e+01 3.436959680366e+01 
1.372537632933e+01 3.436832064008e+01 
1.397990520673e+01 3.437078276029e+01 
1.401055889349e+01 3.436952327370e+01 
1.404130530744e+01 3.436824702689e+01 
1.429267489408e+01 3.437071088974e+01 
1.432332858084e+01 3.436945132099e+01 
1.435407499479e+01 3.436817499177e+01 
1.460231688527e+01 3.437064056309e+01 
1.463297057203e+01 3.436938091300e+01 
1.466371698598e+01 3.436810450218e+01 
1.490886245748e+01 3.437057174846e+01 
1.493951614425e+01 3.436931201785e+01 
1.497026255820e+01 3.436803552627e+01 
1.521234257168e+01 3.437050441466e+01 
1.524299625845e+01 3.436924460433e+01 
1.527374267240e+01 3.436796803278e+01 
1.551278788405e+01 3.437043853109e+01 
1.554344157082e+01 3.436917864184e+01 
1.557418798477e+01 3.436790199113e+01 
1.581022874426e+01 3.437037406780e+01 
1.584088243103e+01 3.436911410041e+01 
1.587162884498e+01 3.436783737133e+01 
1.610469519645e+01 3.437031099542e+01 
1.613534888321e+01 3.436905095068e+01 
1.616609529717e+01 3.436777414402e+01 
1.639621698522e+01 3.437024928521e+01 
1.642687067199e+01 3.436898916389e+01 
1.645761708594e+01 3.436771228041e+01 
1.668482355648e+01 3.437018890897e+01 
1.671547724325e+01 3.436892871183e+01 
1.674622365720e+01 3.436765175231e+01 
1.697054406072e+01 3.437012983910e+01 
1.700119774749e+01 3.436886956692e+01 
1.703194416144e+01 3.436759253211e+01 
1.725340735895e+01 3.437007204857e+01 
1.728406104572e+01 3.436881170208e+01 
1.731480745967e+01 3.436753459275e+01 
1.753344202323e+01 3.437001551087e+01 
1.756409571000e+01 3.436875509081e+01 
1.759484212395e+01 3.436747790770e+01 
1.781067633986e+01 3.436996020003e+01 
1.784133002663e+01 3.436869970715e+01 
1.787207644058e+01 3.436742245099e+01 
1.808513831508e+01 3.436990609064e+01 
1.811579200185e+01 3.436864552566e+01 
1.814653841580e+01 3.436736819719e+01 
1.835685567281e+01 3.436985315777e+01 
1.838750935958e+01 3.436859252142e+01 
1.841825577353e+01 3.436731512135e+01 
1.862585585772e+01 3.436980137701e+01 
1.865650954449e+01 3.436854067000e+01 
1.868725595844e+01 3.436726319905e+01 
1.889216604076e+01 3.436975072445e+01 
1.892281972752e+01 3.436848994748e+01 
1.895356614147e+01 3.436721240636e+01 
1.915581311936e+01 3.436970117666e+01 
1.918646680613e+01 3.436844033043e+01 
1.921721322008e+01 3.436716271985e+01 
1.941682372561e+01 3.436965271068e+01 
1.944747741238e+01 3.436839179589e+01 
1.947822382633e+01 3.436711411654e+01 
1.967522422620e+01 3.436960530404e+01 
1.970587791297e+01 3.436834432137e+01 
1.973662432692e+01 3.436706657393e+01 
1.993104072263e+01 3.436955893469e+01 
1.996169440940e+01 3.436829788482e+01 
1.999244082335e+01 3.436702006998e+01 
2.018429905383e+01 3.436951358106e+01 
2.021495274059e+01 3.436825246467e+01 
2.024569915454e+01 3.436697458310e+01 
2.043502480141e+01 3.436946922201e+01 
2.046567848818e+01 3.436820803975e+01 
2.049642490213e+01 3.436693009212e+01 
2.068324329218e+01 3.436942583682e+01 
2.071389697895e+01 3.436816458936e+01 
2.074464339290e+01 3.436688657632e+01 
2.092897959802e+01 3.436938340520e+01 
2.095963328478e+01 3.436812209319e+01 
2.099037969874e+01 3.436684401541e+01 
2.117225854095e+01 3.436934190728e+01 
2.120291222772e+01 3.436808053136e+01 
2.123365864167e+01 3.436680238948e+01 
2.141310469556e+01 3.436930132357e+01 
2.144375838232e+01 3.436803988439e+01 
2.147450479628e+01 3.436676167905e+01 
2.165154238865e+01 3.436926163501e+01 
2.168219607541e+01 3.436800013319e+01 
2.171294248936e+01 3.436672186503e+01 
2.188759570425e+01 3.436922282291e+01 
2.191824939102e+01 3.436796125908e+01 
2.194899580497e+01 3.436668292872e+01 
2.212128848580e+01 3.436918486895e+01 
2.215194217257e+01 3.436792324373e+01 
2.218268858652e+01 3.436664485180e+01 
2.235264433837e+01 3.436914775520e+01 
2.238329802514e+01 3.436788606921e+01 
2.241404443909e+01 3.436660761631e+01 
2.258168663340e+01 3.436911146409e+01 
2.261234032017e+01 3.436784971793e+01 
2.264308673412e+01 3.436657120469e+01 
2.280843850555e+01 3.436907597841e+01 
2.283909219232e+01 3.436781417269e+01 
2.286983860627e+01 3.436653559970e+01 
2.303292286007e+01 3.436904128130e+01 
2.306357654684e+01 3.436777941661e+01 
2.309432296079e+01 3.436650078447e+01 
2.325516237206e+01 3.436900735624e+01 
2.328581605883e+01 3.436774543317e+01 
2.331656247278e+01 3.436646674248e+01 
2.347517948859e+01 3.436897418705e+01 
2.350583317535e+01 3.436771220619e+01 
2.353657958930e+01 3.436643345753e+01 
2.369299643309e+01 3.436894175789e+01 
2.372365011986e+01 3.436767971981e+01 
2.375439653381e+01 3.436640091376e+01 
2.390863520734e+01 3.436891005323e+01 
2.393928889411e+01 3.436764795850e+01 
2.397003530806e+01 3.436636909563e+01 
2.412211759320e+01 3.436887905785e+01 
2.415277127996e+01 3.436761690705e+01 
2.418351769392e+01 3.436633798793e+01 
2.433346515442e+01 3.436884875686e+01 
2.436411884119e+01 3.436758655054e+01 
2.439486525514e+01 3.436630757573e+01 
2.454269924103e+01 3.436881913567e+01 
2.457335292779e+01 3.436755687438e+01 
2.460409934174e+01 3.436627784445e+01 
2.474984098831e+01 3.436879017997e+01 
2.478049467507e+01 3.436752786428e+01 
2.481124108902e+01 3.436624877976e+01 
2.495491131855e+01 3.436876187577e+01 
2.498556500531e+01 3.436749950621e+01 
2.501631141926e+01 3.436622036766e+01 
2.515793094523e+01 3.436873420935e+01 
2.518858463200e+01 3.436747178645e+01 
2.521933104595e+01 3.436619259442e+01 
2.535892037463e+01 3.436870716727e+01 
2.538957406139e+01 3.436744469157e+01 
2.542032047534e+01 3.436616544658e+01 
2.555789990989e+01 3.436868073636e+01 
2.558855359666e+01 3.436741820840e+01 
2.561930001061e+01 3.436613891098e+01 
2.575488964992e+01 3.436865490375e+01 
2.578554333669e+01 3.436739232404e+01 
2.581628975064e+01 3.436611297471e+01 
2.594990949345e+01 3.436862965678e+01 
2.598056318022e+01 3.436736702584e+01 