 TITLE = "Profiles along polylines"
 VARIABLES = "DIST" "HEAD" 
 ZONE T="TIME=0.000000000000e+00"
7.983485894215e+00 0.000000000000e+00 
8.029295133002e+00 0.000000000000e+00 
8.406318838481e+00 0.000000000000e+00 
8.452128077268e+00 0.000000000000e+00 
8.824923455620e+00 0.000000000000e+00 
8.870732694407e+00 0.000000000000e+00 
9.239342025491e+00 0.000000000000e+00 
9.285151264277e+00 0.000000000000e+00 
9.649616409510e+00 0.000000000000e+00 
9.695425648297e+00 0.000000000000e+00 
1.005578805116e+01 0.000000000000e+00 
1.010159728995e+01 0.000000000000e+00 
1.045789797659e+01 0.000000000000e+00 
1.050370721537e+01 0.000000000000e+00 
1.085598680283e+01 0.000000000000e+00 
1.090179604162e+01 0.000000000000e+00 
1.125009474085e+01 0.000000000000e+00 
1.129590397964e+01 0.000000000000e+00 
1.164026159833e+01 0.000000000000e+00 
1.168607083712e+01 0.000000000000e+00 
1.202652678519e+01 0.000000000000e+00 
1.207233602398e+01 0.000000000000e+00 
1.240892932148e+01 0.000000000000e+00 
1.245473856027e+01 0.000000000000e+00 
1.278750783212e+01 0.000000000000e+00 
1.283331707091e+01 0.000000000000e+00 
1.316230055747e+01 0.000000000000e+00 
1.320810979625e+01 0.000000000000e+00 
1.353334535561e+01 0.000000000000e+00 
1.357915459440e+01 0.000000000000e+00 
1.390067970498e+01 0.000000000000e+00 
1.394648894377e+01 0.000000000000e+00 
1.426434071175e+01 0.000000000000e+00 
1.431014995053e+01 0.000000000000e+00 
1.462436510692e+01 0.000000000000e+00 
1.467017434571e+01 0.000000000000e+00 
1.498078925903e+01 0.000000000000e+00 
1.502659849782e+01 0.000000000000e+00 
1.533364917089e+01 0.000000000000e+00 
1.537945840968e+01 0.000000000000e+00 
1.568298048437e+01 0.000000000000e+00 
1.572878972315e+01 0.000000000000e+00 
1.602881848486e+01 0.000000000000e+00 
1.607462772365e+01 0.000000000000e+00 
1.637119810329e+01 0.000000000000e+00 
1.641700734208e+01 0.000000000000e+00 
1.671015392574e+01 0.000000000000e+00 
1.675596316453e+01 0.000000000000e+00 
1.704572018987e+01 0.000000000000e+00 
1.709152942866e+01 0.000000000000e+00 
1.737793079198e+01 0.000000000000e+00 
1.742374003077e+01 0.000000000000e+00 
1.770681928846e+01 0.000000000000e+00 
1.775262852725e+01 0.000000000000e+00 
1.803241890012e+01 0.000000000000e+00 
1.807822813890e+01 0.000000000000e+00 
1.835476251610e+01 0.000000000000e+00 
1.840057175489e+01 0.000000000000e+00 
1.867388269545e+01 0.000000000000e+00 
1.871969193424e+01 0.000000000000e+00 
1.898981167357e+01 0.000000000000e+00 
1.903562091236e+01 0.000000000000e+00 
1.930258136092e+01 0.000000000000e+00 
1.934839059971e+01 0.000000000000e+00 
1.961222335211e+01 0.000000000000e+00 
1.965803259089e+01 0.000000000000e+00 
1.991876892433e+01 0.000000000000e+00 
1.996457816311e+01 0.000000000000e+00 
2.022224903853e+01 0.000000000000e+00 
2.026805827731e+01 0.000000000000e+00 
2.052269435089e+01 0.000000000000e+00 
2.056850358968e+01 0.000000000000e+00 
2.082013521111e+01 0.000000000000e+00 
2.086594444989e+01 0.000000000000e+00 
2.111460166329e+01 0.000000000000e+00 
2.116041090208e+01 0.000000000000e+00 
2.140612345207e+01 0.000000000000e+00 
2.145193269086e+01 0.000000000000e+00 
2.169473002333e+01 0.000000000000e+00 
2.174053926211e+01 0.000000000000e+00 
2.198045052757e+01 0.000000000000e+00 
2.202625976635e+01 0.000000000000e+00 
2.226331382580e+01 0.000000000000e+00 
2.230912306458e+01 0.000000000000e+00 
2.254334849008e+01 0.000000000000e+00 
2.258915772886e+01 0.000000000000e+00 
2.282058280671e+01 0.000000000000e+00 
2.286639204550e+01 0.000000000000e+00 
2.309504478193e+01 0.000000000000e+00 
2.314085402071e+01 0.000000000000e+00 
2.336676213966e+01 0.000000000000e+00 
2.341257137844e+01 0.000000000000e+00 
2.363576232457e+01 0.000000000000e+00 
2.368157156336e+01 0.000000000000e+00 
2.390207250760e+01 0.000000000000e+00 
2.394788174639e+01 0.000000000000e+00 
2.416571958621e+01 0.000000000000e+00 
2.421152882500e+01 0.000000000000e+00 
2.442673019246e+01 0.000000000000e+00 
2.447253943125e+01 0.000000000000e+00 
2.468513069305e+01 0.000000000000e+00 
2.473093993183e+01 0.000000000000e+00 
2.494094718948e+01 0.000000000000e+00 
2.498675642827e+01 0.000000000000e+00 
2.519420552067e+01 0.000000000000e+00 
2.524001475946e+01 0.000000000000e+00 
2.544493126826e+01 0.000000000000e+00 
2.549074050705e+01 0.000000000000e+00 
2.569314975903e+01 0.000000000000e+00 
2.573895899781e+01 0.000000000000e+00 
2.593888606486e+01 0.000000000000e+00 
2.598469530365e+01 0.000000000000e+00 
2.618216500780e+01 0.000000000000e+00 
2.622797424658e+01 0.000000000000e+00 
2.642301116240e+01 0.000000000000e+00 
2.646882040119e+01 0.000000000000e+00 
2.666144885549e+01 0.000000000000e+00 
2.670725809428e+01 0.000000000000e+00 
2.689750217110e+01 0.000000000000e+00 
2.694331140989e+01 0.000000000000e+00 
2.713119495265e+01 0.000000000000e+00 
2.717700419143e+01 0.000000000000e+00 
2.736255080522e+01 0.000000000000e+00 
2.740836004401e+01 0.000000000000e+00 
2.759159310024e+01 0.000000000000e+00 
2.763740233903e+01 0.000000000000e+00 
2.781834497240e+01 0.000000000000e+00 
2.786415421119e+01 0.000000000000e+00 
2.804282932691e+01 0.000000000000e+00 
2.808863856570e+01 0.000000000000e+00 
2.826506883891e+01 0.000000000000e+00 
2.831087807770e+01 0.000000000000e+00 
2.848508595543e+01 0.000000000000e+00 
2.853089519422e+01 0.000000000000e+00 
2.870290289994e+01 0.000000000000e+00 
2.874871213872e+01 0.000000000000e+00 
2.891854167419e+01 0.000000000000e+00 
2.896435091297e+01 0.000000000000e+00 
2.913202406004e+01 0.000000000000e+00 
2.917783329883e+01 0.000000000000e+00 
2.934337162127e+01 0.000000000000e+00 
2.938918086006e+01 0.000000000000e+00 
2.955260570787e+01 0.000000000000e+00 
2.959841494666e+01 0.000000000000e+00 
2.975974745515e+01 0.000000000000e+00 
2.980555669394e+01 0.000000000000e+00 
2.996481778539e+01 0.000000000000e+00 
3.001062702418e+01 0.000000000000e+00 
3.016783741208e+01 0.000000000000e+00 
3.021364665086e+01 0.000000000000e+00 
3.036882684147e+01 0.000000000000e+00 
3.041463608026e+01 0.000000000000e+00 
3.056780637673e+01 0.000000000000e+00 
3.061361561552e+01 0.000000000000e+00 
3.076479611676e+01 0.000000000000e+00 
3.081060535555e+01 0.000000000000e+00 
3.095981596029e+01 0.000000000000e+00 
3.100562519908e+01 0.000000000000e+00 
3.115288560727e+01 0.000000000000e+00 
3.119869484605e+01 0.000000000000e+00 
3.134402455769e+01 0.000000000000e+00 
3.138983379648e+01 0.000000000000e+00 
3.153325211787e+01 0.000000000000e+00 
3.157906135666e+01 0.000000000000e+00 
3.172058740212e+01 0.000000000000e+00 
3.176639664091e+01 0.000000000000e+00 
3.190604933372e+01 0.000000000000e+00 
3.195185857251e+01 0.000000000000e+00 
3.208965664619e+01 0.000000000000e+00 
3.213546588497e+01 0.000000000000e+00 
3.227142788446e+01 0.000000000000e+00 
3.231723712325e+01 0.000000000000e+00 
3.245138140864e+01 0.000000000000e+00 
3.249719064743e+01 0.000000000000e+00 
3.262953539770e+01 0.000000000000e+00 
3.267534463649e+01 0.000000000000e+00 
3.280590784787e+01 0.000000000000e+00 
3.285171708665e+01 0.000000000000e+00 
3.298051657367e+01 0.000000000000e+00 
3.302632581246e+01 0.000000000000e+00 
3.315337921159e+01 0.000000000000e+00 
3.319918845038e+01 0.000000000000e+00 
3.332451322355e+01 0.000000000000e+00 
3.337032246233e+01 0.000000000000e+00 
3.349393589522e+01 0.000000000000e+00 
3.353974513400e+01 0.000000000000e+00 
3.366166433955e+01 0.000000000000e+00 
3.370747357833e+01 0.000000000000e+00 
3.382771550016e+01 0.000000000000e+00 
3.387352473895e+01 0.000000000000e+00 
3.399210614959e+01 0.000000000000e+00 
3.403791538837e+01 0.000000000000e+00 
3.415485289261e+01 0.000000000000e+00 
3.420066213140e+01 0.000000000000e+00 
3.431597216704e+01 0.000000000000e+00 
3.436178140583e+01 0.000000000000e+00 
3.447548024966e+01 0.000000000000e+00 
3.452128948845e+01 0.000000000000e+00 
3.463339325155e+01 0.000000000000e+00 
3.467920249034e+01 0.000000000000e+00 
3.478972712153e+01 0.000000000000e+00 
3.483553636031e+01 0.000000000000e+00 
3.494449765444e+01 0.000000000000e+00 
3.499030689322e+01 0.000000000000e+00 
3.509772048391e+01 0.000000000000e+00 
3.514352972269e+01 0.000000000000e+00 
3.524941108555e+01 0.000000000000e+00 
3.529522032434e+01 0.000000000000e+00 
3.539958478008e+01 0.000000000000e+00 
3.544539401887e+01 0.000000000000e+00 
3.554825673639e+01 0.000000000000e+00 
3.559406597518e+01 0.000000000000e+00 
3.569544197201e+01 0.000000000000e+00 
3.574125121080e+01 0.000000000000e+00 
3.584115535613e+01 0.000000000000e+00 
3.588696459492e+01 0.000000000000e+00 
3.598541160730e+01 0.000000000000e+00 
3.603122084609e+01 0.000000000000e+00 
3.612822529392e+01 0.000000000000e+00 
3.617403453270e+01 0.000000000000e+00 
3.626961084494e+01 0.000000000000e+00 
3.631542008373e+01 0.000000000000e+00 
3.640958254229e+01 0.000000000000e+00 
3.645539178108e+01 0.000000000000e+00 
3.654815452121e+01 0.000000000000e+00 
3.659396376000e+01 0.000000000000e+00 
3.668534078094e+01 0.000000000000e+00 
3.673115001973e+01 0.000000000000e+00 
3.682115517964e+01 0.000000000000e+00 
3.686696441843e+01 0.000000000000e+00 
3.695561143202e+01 0.000000000000e+00 
3.700142067081e+01 0.000000000000e+00 
3.708872311998e+01 0.000000000000e+00 
3.713453235877e+01 0.000000000000e+00 
3.722050369264e+01 0.000000000000e+00 
3.726631293143e+01 0.000000000000e+00 
3.735096646124e+01 0.000000000000e+00 
3.739677570003e+01 0.000000000000e+00 
3.748012460184e+01 0.000000000000e+00 
3.752593384062e+01 0.000000000000e+00 
3.760799116063e+01 0.000000000000e+00 
3.765380039942e+01 0.000000000000e+00 
3.773457905389e+01 0.000000000000e+00 
3.778038829268e+01 0.000000000000e+00 
3.785990106803e+01 0.000000000000e+00 
3.790571030682e+01 0.000000000000e+00 
3.798396986212e+01 0.000000000000e+00 
3.802977910091e+01 0.000000000000e+00 
3.810679796786e+01 0.000000000000e+00 
3.815260720665e+01 0.000000000000e+00 
3.822839779212e+01 0.000000000000e+00 
3.827420703091e+01 0.000000000000e+00 
3.834878161942e+01 0.000000000000e+00 
3.839459085821e+01 0.000000000000e+00 
3.846796160915e+01 0.000000000000e+00 
3.851377084794e+01 0.000000000000e+00 
3.858594979810e+01 0.000000000000e+00 
3.863175903689e+01 0.000000000000e+00 
3.870275810547e+01 0.000000000000e+00 
3.874856734425e+01 0.000000000000e+00 
3.881839833000e+01 0.000000000000e+00 
3.886420756878e+01 0.000000000000e+00 
3.893288215242e+01 0.000000000000e+00 
3.897869139121e+01 0.000000000000e+00 
3.904622113515e+01 0.000000000000e+00 
3.909203037394e+01 0.000000000000e+00 
3.915842672730e+01 0.000000000000e+00 
3.920423596609e+01 0.000000000000e+00 
3.926951026429e+01 0.000000000000e+00 
3.931531950307e+01 0.000000000000e+00 
3.937948296493e+01 0.000000000000e+00 
3.942529220371e+01 0.000000000000e+00 
3.948835593896e+01 0.000000000000e+00 
3.953416517775e+01 0.000000000000e+00 
3.959614018401e+01 0.000000000000e+00 
3.964194942279e+01 0.000000000000e+00 
3.970284658520e+01 0.000000000000e+00 
3.974865582399e+01 0.000000000000e+00 
3.980848592267e+01 0.000000000000e+00 
3.985429516145e+01 0.000000000000e+00 
3.991306886834e+01 0.000000000000e+00 
3.995887810713e+01 0.000000000000e+00 
4.001660598300e+01 0.000000000000e+00 
4.006241522179e+01 0.000000000000e+00 
4.011910772624e+01 0.000000000000e+00 
4.016491696503e+01 0.000000000000e+00 
4.022058445328e+01 0.000000000000e+00 
4.026639369206e+01 0.000000000000e+00 
4.032104641185e+01 0.000000000000e+00 
4.036685565064e+01 0.000000000000e+00 
4.042050375219e+01 0.000000000000e+00 
4.046631299098e+01 0.000000000000e+00 
4.051896652109e+01 0.000000000000e+00 
4.056477575988e+01 0.000000000000e+00 
4.061644466144e+01 0.000000000000e+00 
4.066225390022e+01 0.000000000000e+00 
4.071294801942e+01 0.000000000000e+00 
4.075875725821e+01 0.000000000000e+00 
4.080848634390e+01 0.000000000000e+00 
4.085429558268e+01 0.000000000000e+00 
4.090306928571e+01 0.000000000000e+00 
4.094887852450e+01 0.000000000000e+00 
4.099670639707e+01 0.000000000000e+00 
4.104251563586e+01 0.000000000000e+00 
4.108940713609e+01 0.000000000000e+00 
4.113521637488e+01 0.000000000000e+00 
4.118118086867e+01 0.000000000000e+00 
4.122699010745e+01 0.000000000000e+00 
4.127203686514e+01 0.000000000000e+00 
4.131784610392e+01 0.000000000000e+00 
4.136198430217e+01 0.000000000000e+00 
4.140779354096e+01 0.000000000000e+00 
4.145103226463e+01 0.000000000000e+00 
4.149684150342e+01 0.000000000000e+00 
4.153918974740e+01 0.000000000000e+00 
4.158499898619e+01 0.000000000000e+00 
4.162646565456e+01 0.000000000000e+00 
4.167227489334e+01 0.000000000000e+00 
4.171286880123e+01 0.000000000000e+00 
4.175867804001e+01 0.000000000000e+00 
4.179840791793e+01 0.000000000000e+00 
4.184421715672e+01 0.000000000000e+00 
4.188309164446e+01 0.000000000000e+00 
4.192890088325e+01 0.000000000000e+00 
4.196692853172e+01 0.000000000000e+00 
4.201273777051e+01 0.000000000000e+00 
4.204992704865e+01 0.000000000000e+00 
4.209573628743e+01 0.000000000000e+00 
4.213209558129e+01 0.000000000000e+00 
4.217790482007e+01 0.000000000000e+00 
4.221344242922e+01 0.000000000000e+00 
4.225925166801e+01 0.000000000000e+00 
4.229397580994e+01 0.000000000000e+00 
4.233978504873e+01 0.000000000000e+00 
4.237370385779e+01 0.000000000000e+00 
4.241951309657e+01 0.000000000000e+00 
4.245263462310e+01 0.000000000000e+00 
4.249844386188e+01 0.000000000000e+00 
4.253077607900e+01 0.000000000000e+00 
4.257658531779e+01 0.000000000000e+00 
4.260813612042e+01 0.000000000000e+00 
4.265394535921e+01 0.000000000000e+00 
4.268472256301e+01 0.000000000000e+00 
4.273053180180e+01 0.000000000000e+00 
4.276054314213e+01 0.000000000000e+00 
4.280635238092e+01 0.000000000000e+00 
4.283560551445e+01 0.000000000000e+00 
4.288141475324e+01 0.000000000000e+00 
4.290991726211e+01 0.000000000000e+00 
4.295572650090e+01 0.000000000000e+00 
4.298348589421e+01 0.000000000000e+00 
4.302929513300e+01 0.000000000000e+00 
 TITLE = "Profiles along polylines"
 VARIABLES = "DIST" "HEAD" 
 ZONE T="TIME=1.797693134862e+308"
7.983485894215e+00 3.399731676214e+01 
8.029295133002e+00 3.399228468888e+01 
8.406318838481e+00 3.399716178825e+01 
8.452128077268e+00 3.399212954895e+01 
8.824923455620e+00 3.399700987146e+01 
8.870732694407e+00 3.399197746767e+01 
9.239342025491e+00 3.399686095139e+01 
9.285151264277e+00 3.399182838464e+01 
9.649616409510e+00 3.399671496874e+01 
9.695425648297e+00 3.399168224055e+01 
1.005578805116e+01 3.399657186530e+01 
1.010159728995e+01 3.399153897719e+01 
1.045789797659e+01 3.399643158402e+01 
1.050370721537e+01 3.399139853748e+01 
1.085598680283e+01 3.399629406898e+01 
1.090179604162e+01 3.399126086549e+01 
1.125009474085e+01 3.399615926538e+01 
1.129590397964e+01 3.399112590642e+01 
1.164026159833e+01 3.399602711951e+01 
1.168607083712e+01 3.399099360653e+01 
1.202652678519e+01 3.399589757871e+01 
1.207233602398e+01 3.399086391316e+01 
1.240892932148e+01 3.399577059140e+01 
1.245473856027e+01 3.399073677472e+01 
1.278750783212e+01 3.399564610701e+01 
1.283331707091e+01 3.399061214062e+01 
1.316230055747e+01 3.399552407597e+01 
1.320810979625e+01 3.399048996129e+01 
1.353334535561e+01 3.399540444971e+01 
1.357915459440e+01 3.399037018813e+01 
1.390067970498e+01 3.399528718061e+01 
1.394648894377e+01 3.399025277353e+01 
1.426434071175e+01 3.399517222200e+01 
1.431014995053e+01 3.399013767080e+01 
1.462436510692e+01 3.399505952814e+01 
1.467017434571e+01 3.399002483419e+01 
1.498078925903e+01 3.399494905421e+01 
1.502659849782e+01 3.398991421885e+01 
1.533364917089e+01 3.399484075625e+01 
1.537945840968e+01 3.398980578084e+01 
1.568298048437e+01 3.399473459120e+01 
1.572878972315e+01 3.398969947708e+01 
1.602881848486e+01 3.399463051683e+01 
1.607462772365e+01 3.398959526533e+01 
1.637119810329e+01 3.399452849179e+01 
1.641700734208e+01 3.398949310421e+01 
1.671015392574e+01 3.399442847550e+01 
1.675596316453e+01 3.398939295315e+01 
1.704572018987e+01 3.399433042822e+01 
1.709152942866e+01 3.398929477239e+01 
1.737793079198e+01 3.399423431099e+01 
1.742374003077e+01 3.398919852296e+01 
1.770681928846e+01 3.399414008561e+01 
1.775262852725e+01 3.398910416666e+01 
1.803241890012e+01 3.399404771466e+01 
1.807822813890e+01 3.398901166605e+01 
1.835476251610e+01 3.399395716145e+01 
1.840057175489e+01 3.398892098442e+01 
1.867388269545e+01 3.399386839001e+01 
1.871969193424e+01 3.398883208582e+01 
1.898981167357e+01 3.399378136510e+01 
1.903562091236e+01 3.398874493497e+01 
1.930258136092e+01 3.399369605217e+01 
1.934839059971e+01 3.398865949733e+01 
1.961222335211e+01 3.399361241736e+01 
1.965803259089e+01 3.398857573902e+01 
1.991876892433e+01 3.399353042747e+01 
1.996457816311e+01 3.398849362684e+01 
2.022224903853e+01 3.399345004999e+01 
2.026805827731e+01 3.398841312824e+01 
2.052269435089e+01 3.399337125301e+01 
2.056850358968e+01 3.398833421133e+01 
2.082013521111e+01 3.399329400529e+01 
2.086594444989e+01 3.398825684485e+01 
2.111460166329e+01 3.399321827618e+01 
2.116041090208e+01 3.398818099816e+01 
2.140612345207e+01 3.399314403567e+01 
2.145193269086e+01 3.398810664120e+01 
2.169473002333e+01 3.399307125431e+01 
2.174053926211e+01 3.398803374455e+01 
2.198045052757e+01 3.399299990327e+01 
2.202625976635e+01 3.398796227934e+01 
2.226331382580e+01 3.399292995427e+01 
2.230912306458e+01 3.398789221729e+01 
2.254334849008e+01 3.399286137958e+01 
2.258915772886e+01 3.398782353068e+01 
2.282058280671e+01 3.399279415205e+01 
2.286639204550e+01 3.398775619232e+01 
2.309504478193e+01 3.399272824505e+01 
2.314085402071e+01 3.398769017559e+01 
2.336676213966e+01 3.399266363248e+01 
2.341257137844e+01 3.398762545437e+01 
2.363576232457e+01 3.399260028876e+01 
2.368157156336e+01 3.398756200307e+01 
2.390207250760e+01 3.399253818880e+01 
2.394788174639e+01 3.398749979661e+01 
2.416571958621e+01 3.399247730805e+01 
2.421152882500e+01 3.398743881041e+01 
2.442673019246e+01 3.399241762240e+01 
2.447253943125e+01 3.398737902035e+01 
2.468513069305e+01 3.399235910824e+01 
2.473093993183e+01 3.398732040283e+01 
2.494094718948e+01 3.399230174243e+01 
2.498675642827e+01 3.398726293468e+01 
2.519420552067e+01 3.399224550228e+01 
2.524001475946e+01 3.398720659321e+01 
2.544493126826e+01 3.399219036555e+01 
2.549074050705e+01 3.398715135618e+01 
2.569314975903e+01 3.399213631046e+01 
2.573895899781e+01 3.398709720178e+01 
2.593888606486e+01 3.399208331563e+01 
2.598469530365e+01 3.398704410863e+01 
2.618216500780e+01 3.399203136013e+01 
2.622797424658e+01 3.398699205580e+01 
2.642301116240e+01 3.399198042343e+01 
2.646882040119e+01 3.398694102274e+01 
2.666144885549e+01 3.399193048541e+01 
2.670725809428e+01 3.398689098932e+01 
2.689750217110e+01 3.399188152635e+01 
2.694331140989e+01 3.398684193583e+01 
2.713119495265e+01 3.399183352693e+01 
2.717700419143e+01 3.398679384291e+01 
2.736255080522e+01 3.399178646819e+01 
2.740836004401e+01 3.398674669163e+01 
2.759159310024e+01 3.399174033157e+01 
2.763740233903e+01 3.398670046339e+01 
2.781834497240e+01 3.399169509887e+01 
2.786415421119e+01 3.398665513998e+01 
2.804282932691e+01 3.399165075224e+01 
2.808863856570e+01 3.398661070356e+01 
2.826506883891e+01 3.399160727419e+01 
2.831087807770e+01 3.398656713662e+01 
2.848508595543e+01 3.399156464758e+01 
2.853089519422e+01 3.398652442202e+01 
2.870290289994e+01 3.399152285561e+01 
2.874871213872e+01 3.398648254295e+01 
2.891854167419e+01 3.399148188181e+01 
2.896435091297e+01 3.398644148292e+01 
2.913202406004e+01 3.399144171003e+01 
2.917783329883e+01 3.398640122579e+01 
2.934337162127e+01 3.399140232446e+01 
2.938918086006e+01 3.398636175573e+01 
2.955260570787e+01 3.399136370958e+01 
2.959841494666e+01 3.398632305721e+01 
2.975974745515e+01 3.399132585018e+01 
2.980555669394e+01 3.398628511502e+01 
2.996481778539e+01 3.399128873138e+01 
3.001062702418e+01 3.398624791425e+01 
3.016783741208e+01 3.399125233855e+01 
3.021364665086e+01 3.398621144030e+01 
3.036882684147e+01 3.399121665738e+01 
3.041463608026e+01 3.398617567883e+01 
3.056780637673e+01 3.399118167385e+01 
3.061361561552e+01 3.398614061580e+01 
3.076479611676e+01 3.399114737418e+01 
3.081060535555e+01 3.398610623744e+01 
3.095981596029e+01 3.399111374490e+01 
3.100562519908e+01 3.398607253027e+01 
3.115288560727e+01 3.399108077280e+01 
3.119869484605e+01 3.398603948106e+01 
3.134402455769e+01 3.399104844491e+01 
3.138983379648e+01 3.398600707685e+01 
3.153325211787e+01 3.399101674853e+01 
3.157906135666e+01 3.398597530494e+01 
3.172058740212e+01 3.399098567123e+01 
3.176639664091e+01 3.398594415286e+01 
3.190604933372e+01 3.399095520080e+01 
3.195185857251e+01 3.398591360841e+01 
3.208965664619e+01 3.399092532528e+01 
3.213546588497e+01 3.398588365962e+01 
3.227142788446e+01 3.399089603295e+01 
3.231723712325e+01 3.398585429476e+01 
3.245138140864e+01 3.399086731232e+01 
3.249719064743e+01 3.398582550234e+01 
3.262953539770e+01 3.399083915212e+01 
3.267534463649e+01 3.398579727108e+01 
3.280590784787e+01 3.399081154131e+01 
3.285171708665e+01 3.398576958994e+01 
3.298051657367e+01 3.399078446908e+01 
3.302632581246e+01 3.398574244809e+01 
3.315337921159e+01 3.399075792482e+01 
3.319918845038e+01 3.398571583491e+01 
3.332451322355e+01 3.399073189812e+01 
3.337032246233e+01 3.398568974001e+01 
3.349393589522e+01 3.399070637880e+01 
3.353974513400e+01 3.398566415317e+01 
3.366166433955e+01 3.399068135687e+01 
3.370747357833e+01 3.398563906441e+01 
3.382771550016e+01 3.399065682253e+01 
3.387352473895e+01 3.398561446392e+01 
3.399210614959e+01 3.399063276619e+01 
3.403791538837e+01 3.398559034210e+01 
3.415485289261e+01 3.399060917843e+01 
3.420066213140e+01 3.398556668953e+01 
3.431597216704e+01 3.399058605005e+01 
3.436178140583e+01 3.398554349699e+01 
3.447548024966e+01 3.399056337198e+01 
3.452128948845e+01 3.398552075543e+01 
3.463339325155e+01 3.399054113538e+01 
3.467920249034e+01 3.398549845598e+01 
3.478972712153e+01 3.399051933156e+01 
3.483553636031e+01 3.398547658995e+01 
3.494449765444e+01 3.399049795200e+01 
3.499030689322e+01 3.398545514881e+01 
3.509772048391e+01 3.399047698836e+01 
3.514352972269e+01 3.398543412422e+01 
3.524941108555e+01 3.399045643246e+01 
3.529522032434e+01 3.398541350799e+01 
3.539958478008e+01 3.399043627628e+01 
3.544539401887e+01 3.398539329209e+01 
3.554825673639e+01 3.399041651195e+01 
3.559406597518e+01 3.398537346866e+01 
3.569544197201e+01 3.399039713178e+01 
3.574125121080e+01 3.398535402999e+01 
3.584115535613e+01 3.399037812822e+01 
3.588696459492e+01 3.398533496851e+01 
3.598541160730e+01 3.399035949384e+01 
3.603122084609e+01 3.398531627682e+01 
3.612822529392e+01 3.399034122142e+01 
3.617403453270e+01 3.398529794766e+01 
3.626961084494e+01 3.399032330382e+01 
3.631542008373e+01 3.398527997390e+01 
3.640958254229e+01 3.399030573407e+01 
3.645539178108e+01 3.398526234857e+01 
3.654815452121e+01 3.399028850535e+01 
3.659396376000e+01 3.398524506483e+01 
3.668534078094e+01 3.399027161095e+01 
3.673115001973e+01 3.398522811598e+01 
3.682115517964e+01 3.399025504430e+01 
3.686696441843e+01 3.398521149543e+01 
3.695561143202e+01 3.399023879897e+01 
3.700142067081e+01 3.398519519674e+01 
3.708872311998e+01 3.399022286865e+01 
3.713453235877e+01 3.398517921361e+01 
3.722050369264e+01 3.399020724715e+01 
3.726631293143e+01 3.398516353984e+01 
3.735096646124e+01 3.399019192841e+01 
3.739677570003e+01 3.398514816936e+01 
3.748012460184e+01 3.399017690648e+01 
3.752593384062e+01 3.398513309622e+01 
3.760799116063e+01 3.399016217554e+01 
3.765380039942e+01 3.398511831459e+01 
3.773457905389e+01 3.399014772988e+01 
3.778038829268e+01 3.398510381875e+01 
3.785990106803e+01 3.399013356390e+01 
3.790571030682e+01 3.398508960311e+01 
3.798396986212e+01 3.399011967212e+01 
3.802977910091e+01 3.398507566216e+01 
3.810679796786e+01 3.399010604914e+01 
3.815260720665e+01 3.398506199053e+01 
3.822839779212e+01 3.399009268971e+01 
3.827420703091e+01 3.398504858294e+01 
3.834878161942e+01 3.399007958865e+01 
3.839459085821e+01 3.398503543421e+01 
3.846796160915e+01 3.399006674090e+01 
3.851377084794e+01 3.398502253927e+01 
3.858594979810e+01 3.399005414148e+01 
3.863175903689e+01 3.398500989315e+01 
3.870275810547e+01 3.399004178554e+01 
3.874856734425e+01 3.398499749097e+01 
3.881839833000e+01 3.399002966829e+01 
3.886420756878e+01 3.398498532797e+01 
3.893288215242e+01 3.399001778507e+01 
3.897869139121e+01 3.398497339945e+01 
3.904622113515e+01 3.399000613128e+01 
3.909203037394e+01 3.398496170083e+01 
3.915842672730e+01 3.398999470243e+01 
3.920423596609e+01 3.398495022760e+01 
3.926951026429e+01 3.398998349411e+01 
3.931531950307e+01 3.398493897536e+01 
3.937948296493e+01 3.398997250201e+01 
3.942529220371e+01 3.398492793978e+01 
3.948835593896e+01 3.398996172188e+01 
3.953416517775e+01 3.398491711662e+01 
3.959614018401e+01 3.398995114959e+01 
3.964194942279e+01 3.398490650173e+01 
3.970284658520e+01 3.398994078106e+01 
3.974865582399e+01 3.398489609103e+01 
3.980848592267e+01 3.398993061229e+01 
3.985429516145e+01 3.398488588053e+01 
3.991306886834e+01 3.398992063940e+01 
3.995887810713e+01 3.398487586632e+01 
4.001660598300e+01 3.398991085853e+01 
4.006241522179e+01 3.398486604456e+01 
4.011910772624e+01 3.398990126593e+01 
4.016491696503e+01 3.398485641149e+01 
4.022058445328e+01 3.398989185792e+01 
4.026639369206e+01 3.398484696342e+01 
4.032104641185e+01 3.398988263090e+01 
4.036685565064e+01 3.398483769674e+01 
4.042050375219e+01 3.398987358131e+01 
4.046631299098e+01 3.398482860790e+01 
4.051896652109e+01 3.398986470570e+01 
4.056477575988e+01 3.398481969343e+01 
4.061644466144e+01 3.398985600066e+01 
4.066225390022e+01 3.398481094993e+01 
4.071294801942e+01 3.398984746285e+01 
4.075875725821e+01 3.398480237405e+01 
4.080848634390e+01 3.398983908901e+01 
4.085429558268e+01 3.398479396253e+01 
4.090306928571e+01 3.398983087594e+01 
4.094887852450e+01 3.398478571216e+01 
4.099670639707e+01 3.398982282049e+01 
4.104251563586e+01 3.398477761979e+01 
4.108940713609e+01 3.398981491959e+01 
4.113521637488e+01 3.398476968235e+01 
4.118118086867e+01 3.398980717022e+01 
4.122699010745e+01 3.398476189680e+01 
4.127203686514e+01 3.398979956942e+01 
4.131784610392e+01 3.398475426019e+01 
4.136198430217e+01 3.398979211429e+01 
4.140779354096e+01 3.398474676962e+01 
4.145103226463e+01 3.398978480199e+01 
4.149684150342e+01 3.398473942223e+01 
4.153918974740e+01 3.398977762973e+01 
4.158499898619e+01 3.398473221524e+01 
4.162646565456e+01 3.398977059477e+01 
4.167227489334e+01 3.398472514591e+01 
4.171286880123e+01 3.398976369445e+01 
4.175867804001e+01 3.398471821156e+01 
4.179840791793e+01 3.398975692613e+01 
4.184421715672e+01 3.398471140956e+01 
4.188309164446e+01 3.398975028724e+01 
4.192890088325e+01 3.398470473733e+01 
4.196692853172e+01 3.398974377526e+01 
4.201273777051e+01 3.398469819235e+01 
4.204992704865e+01 3.398973738771e+01 
4.209573628743e+01 3.398469177214e+01 
4.213209558129e+01 3.398973112218e+01 
4.217790482007e+01 3.398468547426e+01 
4.221344242922e+01 3.398972497627e+01 
4.225925166801e+01 3.398467929635e+01 
4.229397580994e+01 3.398971894767e+01 
4.233978504873e+01 3.398467323607e+01 
4.237370385779e+01 3.398971303409e+01 
4.241951309657e+01 3.398466729113e+01 
4.245263462310e+01 3.398970723329e+01 
4.249844386188e+01 3.398466145928e+01 
4.253077607900e+01 3.398970154307e+01 
4.257658531779e+01 3.398465573833e+01 
4.260813612042e+01 3.398969596128e+01 
4.265394535921e+01 3.398465012613e+01 
4.268472256301e+01 3.398969048582e+01 
4.273053180180e+01 3.398464462055e+01 
4.276054314213e+01 3.398968511461e+01 
4.280635238092e+01 3.398463921954e+01 
4.283560551445e+01 3.398967984562e+01 
4.288141475324e+01 3.398463392105e+01 
4.290991726211e+01 3.398967467688e+01 
4.295572650090e+01 3.398462872310e+01 
4.298348589421e+01 3.398966960647e+01 
4.302929513300e+01 3.398462362378e+01 
