 TITLE = "Profiles along polylines"
 VARIABLES = "DIST" "HEAD" 
 ZONE T="TIME=0.000000000000e+00"
8.664708620088e+01 0.000000000000e+00 
8.706991914515e+01 0.000000000000e+00 
8.748852376229e+01 0.000000000000e+00 
8.790294233216e+01 0.000000000000e+00 
8.831321671619e+01 0.000000000000e+00 
8.871938835784e+01 0.000000000000e+00 
8.912149828326e+01 0.000000000000e+00 
8.951958710951e+01 0.000000000000e+00 
8.991369504753e+01 0.000000000000e+00 
9.030386190501e+01 0.000000000000e+00 
9.069012709187e+01 0.000000000000e+00 
9.107252962816e+01 0.000000000000e+00 
9.145110813880e+01 0.000000000000e+00 
9.182590086415e+01 0.000000000000e+00 
9.219694566230e+01 0.000000000000e+00 
9.256428001167e+01 0.000000000000e+00 
9.292794101843e+01 0.000000000000e+00 
9.328796541361e+01 0.000000000000e+00 
9.364438956572e+01 0.000000000000e+00 
9.399724947758e+01 0.000000000000e+00 
9.434658079106e+01 0.000000000000e+00 
9.469241879155e+01 0.000000000000e+00 
9.503479840999e+01 0.000000000000e+00 
9.537375423243e+01 0.000000000000e+00 
9.570932049657e+01 0.000000000000e+00 
9.604153109868e+01 0.000000000000e+00 
9.637041959516e+01 0.000000000000e+00 
9.669601920682e+01 0.000000000000e+00 
9.701836282280e+01 0.000000000000e+00 
9.733748300215e+01 0.000000000000e+00 
9.765341198027e+01 0.000000000000e+00 
9.796618166762e+01 0.000000000000e+00 
9.827582365881e+01 0.000000000000e+00 
9.858236923103e+01 0.000000000000e+00 
9.888584934523e+01 0.000000000000e+00 
9.918629465760e+01 0.000000000000e+00 
9.948373551781e+01 0.000000000000e+00 
9.977820197000e+01 0.000000000000e+00 
1.000697237588e+02 0.000000000000e+00 
1.003583303300e+02 0.000000000000e+00 
1.006440508343e+02 0.000000000000e+00 
1.009269141325e+02 0.000000000000e+00 
1.012069487968e+02 0.000000000000e+00 
1.014841831134e+02 0.000000000000e+00 
1.017586450886e+02 0.000000000000e+00 
 TITLE = "Profiles along polylines"
 VARIABLES = "DIST" "HEAD" 
 ZONE T="TIME=1.797693134862e+308"
8.664708620088e+01 3.077708460351e+01 
8.706991914515e+01 3.077645355492e+01 
8.748852376229e+01 3.077582820095e+01 
8.790294233216e+01 3.077520872679e+01 
8.831321671619e+01 3.077459523049e+01 
8.871938835784e+01 3.077398775836e+01 
8.912149828326e+01 3.077338632636e+01 
8.951958710951e+01 3.077279093297e+01 
8.991369504753e+01 3.077220156675e+01 
9.030386190501e+01 3.077161821060e+01 
9.069012709187e+01 3.077104084418e+01 
9.107252962816e+01 3.077046944506e+01 
9.145110813880e+01 3.076990398936e+01 
9.182590086415e+01 3.076934445189e+01 
9.219694566230e+01 3.076879080621e+01 
9.256428001167e+01 3.076824302455e+01 
9.292794101843e+01 3.076770107776e+01 
9.328796541361e+01 3.076716493526e+01 
9.364438956572e+01 3.076663456494e+01 
9.399724947758e+01 3.076610993320e+01 
9.434658079106e+01 3.076559100495e+01 
9.469241879155e+01 3.076507774366e+01 
9.503479840999e+01 3.076457011136e+01 
9.537375423243e+01 3.076406806879e+01 
9.570932049657e+01 3.076357157542e+01 
9.604153109868e+01 3.076308058957e+01 
9.637041959516e+01 3.076259506848e+01 
9.669601920682e+01 3.076211496845e+01 
9.701836282280e+01 3.076164024489e+01 
9.733748300215e+01 3.076117085241e+01 
9.765341198027e+01 3.076070674495e+01 
9.796618166762e+01 3.076024787585e+01 
9.827582365881e+01 3.075979419792e+01 
9.858236923103e+01 3.075934566351e+01 
9.888584934523e+01 3.075890222464e+01 
9.918629465760e+01 3.075846383301e+01 
9.948373551781e+01 3.075803044009e+01 
9.977820197000e+01 3.075760199716e+01 
1.000697237588e+02 3.075717845541e+01 
1.003583303300e+02 3.075675976596e+01 
1.006440508343e+02 3.075634587989e+01 
1.009269141325e+02 3.075593674834e+01 
1.012069487968e+02 3.075553232249e+01 
1.014841831134e+02 3.075513255362e+01 
1.017586450886e+02 3.075473739316e+01 
