 TITLE = "Profiles along polylines"
 VARIABLES = "DIST" "HEAD" 
 ZONE T="TIME=0.000000000000e+00"
9.713863452983e+01 0.000000000000e+00 
9.756146747410e+01 0.000000000000e+00 
9.798007209124e+01 0.000000000000e+00 
9.839449066111e+01 0.000000000000e+00 
9.880476504513e+01 0.000000000000e+00 
9.921093668679e+01 0.000000000000e+00 
9.961304661221e+01 0.000000000000e+00 
1.000111354385e+02 0.000000000000e+00 
1.004052433765e+02 0.000000000000e+00 
1.007954102340e+02 0.000000000000e+00 
1.011816754208e+02 0.000000000000e+00 
1.015640779571e+02 0.000000000000e+00 
1.019426564678e+02 0.000000000000e+00 
 TITLE = "Profiles along polylines"
 VARIABLES = "DIST" "HEAD" 
 ZONE T="TIME=1.797693134862e+308"
9.713863452983e+01 3.018821001999e+01 
9.756146747410e+01 3.018753165895e+01 
9.798007209124e+01 3.018686677310e+01 
9.839449066111e+01 3.018621467329e+01 
9.880476504513e+01 3.018557495139e+01 
9.921093668679e+01 3.018494733668e+01 
9.961304661221e+01 3.018433161886e+01 
1.000111354385e+02 3.018372760854e+01 
1.004052433765e+02 3.018313511850e+01 
1.007954102340e+02 3.018255395587e+01 
1.011816754208e+02 3.018198392000e+01 
1.015640779571e+02 3.018142480275e+01 
1.019426564678e+02 3.018087638996e+01 
