 TITLE = "Profiles along polylines"
 VARIABLES = "DIST" "HEAD" 
 ZONE T="TIME=0.000000000000e+00"
7.488611469064e+00 0.000000000000e+00 
7.532923710203e+00 0.000000000000e+00 
7.911444413330e+00 0.000000000000e+00 
7.955756654469e+00 0.000000000000e+00 
8.330049030469e+00 0.000000000000e+00 
8.374361271609e+00 0.000000000000e+00 
8.744467600339e+00 0.000000000000e+00 
8.788779841479e+00 0.000000000000e+00 
9.154741984359e+00 0.000000000000e+00 
9.199054225498e+00 0.000000000000e+00 
9.560913626012e+00 0.000000000000e+00 
9.605225867152e+00 0.000000000000e+00 
9.963023551435e+00 0.000000000000e+00 
1.000733579257e+01 0.000000000000e+00 
1.036111237768e+01 0.000000000000e+00 
1.040542461882e+01 0.000000000000e+00 
1.075522031570e+01 0.000000000000e+00 
1.079953255684e+01 0.000000000000e+00 
1.114538717318e+01 0.000000000000e+00 
1.118969941432e+01 0.000000000000e+00 
1.153165236004e+01 0.000000000000e+00 
1.157596460118e+01 0.000000000000e+00 
1.191405489633e+01 0.000000000000e+00 
1.195836713747e+01 0.000000000000e+00 
1.229263340697e+01 0.000000000000e+00 
1.233694564811e+01 0.000000000000e+00 
1.266742613231e+01 0.000000000000e+00 
1.271173837345e+01 0.000000000000e+00 
1.303847093046e+01 0.000000000000e+00 
1.308278317160e+01 0.000000000000e+00 
1.340580527983e+01 0.000000000000e+00 
1.345011752097e+01 0.000000000000e+00 
1.376946628659e+01 0.000000000000e+00 
1.381377852773e+01 0.000000000000e+00 
1.412949068177e+01 0.000000000000e+00 
1.417380292291e+01 0.000000000000e+00 
1.448591483388e+01 0.000000000000e+00 
1.453022707502e+01 0.000000000000e+00 
1.483877474574e+01 0.000000000000e+00 
1.488308698688e+01 0.000000000000e+00 
1.518810605921e+01 0.000000000000e+00 
1.523241830035e+01 0.000000000000e+00 
1.553394405971e+01 0.000000000000e+00 
1.557825630085e+01 0.000000000000e+00 
1.587632367814e+01 0.000000000000e+00 
1.592063591928e+01 0.000000000000e+00 
1.621527950059e+01 0.000000000000e+00 
1.625959174173e+01 0.000000000000e+00 
1.655084576472e+01 0.000000000000e+00 
1.659515800586e+01 0.000000000000e+00 
1.688305636683e+01 0.000000000000e+00 
1.692736860797e+01 0.000000000000e+00 
1.721194486331e+01 0.000000000000e+00 
1.725625710445e+01 0.000000000000e+00 
1.753754447497e+01 0.000000000000e+00 
1.758185671610e+01 0.000000000000e+00 
1.785988809095e+01 0.000000000000e+00 
1.790420033209e+01 0.000000000000e+00 
1.817900827030e+01 0.000000000000e+00 
1.822332051144e+01 0.000000000000e+00 
1.849493724842e+01 0.000000000000e+00 
1.853924948956e+01 0.000000000000e+00 
1.880770693577e+01 0.000000000000e+00 
1.885201917691e+01 0.000000000000e+00 
1.911734892696e+01 0.000000000000e+00 
1.916166116810e+01 0.000000000000e+00 
1.942389449917e+01 0.000000000000e+00 
1.946820674031e+01 0.000000000000e+00 
1.972737461337e+01 0.000000000000e+00 
1.977168685451e+01 0.000000000000e+00 
2.002781992574e+01 0.000000000000e+00 
2.007213216688e+01 0.000000000000e+00 
2.032526078595e+01 0.000000000000e+00 
2.036957302709e+01 0.000000000000e+00 
2.061972723814e+01 0.000000000000e+00 
2.066403947928e+01 0.000000000000e+00 
2.091124902692e+01 0.000000000000e+00 
2.095556126806e+01 0.000000000000e+00 
2.119985559817e+01 0.000000000000e+00 
2.124416783931e+01 0.000000000000e+00 
2.148557610242e+01 0.000000000000e+00 
2.152988834355e+01 0.000000000000e+00 
2.176843940064e+01 0.000000000000e+00 
2.181275164178e+01 0.000000000000e+00 
2.204847406492e+01 0.000000000000e+00 
2.209278630606e+01 0.000000000000e+00 
2.232570838156e+01 0.000000000000e+00 
2.237002062270e+01 0.000000000000e+00 
2.260017035677e+01 0.000000000000e+00 
2.264448259791e+01 0.000000000000e+00 
2.287188771450e+01 0.000000000000e+00 
2.291619995564e+01 0.000000000000e+00 
2.314088789942e+01 0.000000000000e+00 
2.318520014056e+01 0.000000000000e+00 
2.340719808245e+01 0.000000000000e+00 
2.345151032359e+01 0.000000000000e+00 
2.367084516106e+01 0.000000000000e+00 
2.371515740220e+01 0.000000000000e+00 
2.393185576731e+01 0.000000000000e+00 
2.397616800845e+01 0.000000000000e+00 
2.419025626789e+01 0.000000000000e+00 
2.423456850903e+01 0.000000000000e+00 
2.444607276433e+01 0.000000000000e+00 
2.449038500547e+01 0.000000000000e+00 
2.469933109552e+01 0.000000000000e+00 
2.474364333666e+01 0.000000000000e+00 
2.495005684311e+01 0.000000000000e+00 
2.499436908425e+01 0.000000000000e+00 
2.519827533387e+01 0.000000000000e+00 
2.524258757501e+01 0.000000000000e+00 
2.544401163971e+01 0.000000000000e+00 
2.548832388085e+01 0.000000000000e+00 
2.568729058264e+01 0.000000000000e+00 
2.573160282378e+01 0.000000000000e+00 
2.592813673725e+01 0.000000000000e+00 
2.597244897839e+01 0.000000000000e+00 
2.616657443034e+01 0.000000000000e+00 
2.621088667148e+01 0.000000000000e+00 
2.640262774595e+01 0.000000000000e+00 
2.644693998709e+01 0.000000000000e+00 
2.663632052749e+01 0.000000000000e+00 
2.668063276863e+01 0.000000000000e+00 
2.686767638007e+01 0.000000000000e+00 
2.691198862121e+01 0.000000000000e+00 
2.709671867509e+01 0.000000000000e+00 
2.714103091623e+01 0.000000000000e+00 
2.732347054725e+01 0.000000000000e+00 
2.736778278839e+01 0.000000000000e+00 
2.754795490176e+01 0.000000000000e+00 
2.759226714290e+01 0.000000000000e+00 
2.777019441376e+01 0.000000000000e+00 
2.781450665490e+01 0.000000000000e+00 
2.799021153028e+01 0.000000000000e+00 
2.803452377142e+01 0.000000000000e+00 
2.820802847478e+01 0.000000000000e+00 
2.825234071592e+01 0.000000000000e+00 
2.842366724903e+01 0.000000000000e+00 
2.846797949017e+01 0.000000000000e+00 
2.863714963489e+01 0.000000000000e+00 
2.868146187603e+01 0.000000000000e+00 
2.884849719612e+01 0.000000000000e+00 
2.889280943726e+01 0.000000000000e+00 
2.905773128272e+01 0.000000000000e+00 
2.910204352386e+01 0.000000000000e+00 
2.926487303000e+01 0.000000000000e+00 
2.930918527114e+01 0.000000000000e+00 
2.946994336024e+01 0.000000000000e+00 
2.951425560138e+01 0.000000000000e+00 
2.967296298693e+01 0.000000000000e+00 
2.971727522806e+01 0.000000000000e+00 
2.987395241632e+01 0.000000000000e+00 
2.991826465746e+01 0.000000000000e+00 
3.007293195158e+01 0.000000000000e+00 
3.011724419272e+01 0.000000000000e+00 
3.026992169161e+01 0.000000000000e+00 
3.031423393275e+01 0.000000000000e+00 
3.046494153514e+01 0.000000000000e+00 
3.050925377628e+01 0.000000000000e+00 
3.065801118212e+01 0.000000000000e+00 
3.070232342325e+01 0.000000000000e+00 
3.084915013254e+01 0.000000000000e+00 
3.089346237368e+01 0.000000000000e+00 
3.103837769272e+01 0.000000000000e+00 
3.108268993386e+01 0.000000000000e+00 
3.122571297697e+01 0.000000000000e+00 
3.127002521811e+01 0.000000000000e+00 
3.141117490857e+01 0.000000000000e+00 
3.145548714971e+01 0.000000000000e+00 
3.159478222104e+01 0.000000000000e+00 
3.163909446217e+01 0.000000000000e+00 
3.177655345931e+01 0.000000000000e+00 
3.182086570045e+01 0.000000000000e+00 
3.195650698349e+01 0.000000000000e+00 
3.200081922463e+01 0.000000000000e+00 
3.213466097255e+01 0.000000000000e+00 
3.217897321369e+01 0.000000000000e+00 
3.231103342271e+01 0.000000000000e+00 
3.235534566385e+01 0.000000000000e+00 
3.248564214852e+01 0.000000000000e+00 
3.252995438966e+01 0.000000000000e+00 
3.265850478644e+01 0.000000000000e+00 
3.270281702758e+01 0.000000000000e+00 
3.282963879840e+01 0.000000000000e+00 
3.287395103954e+01 0.000000000000e+00 
3.299906147006e+01 0.000000000000e+00 
3.304337371120e+01 0.000000000000e+00 
3.316678991439e+01 0.000000000000e+00 
3.321110215553e+01 0.000000000000e+00 
3.333284107501e+01 0.000000000000e+00 
3.337715331615e+01 0.000000000000e+00 
3.349723172444e+01 0.000000000000e+00 
3.354154396557e+01 0.000000000000e+00 
3.365997846746e+01 0.000000000000e+00 
3.370429070860e+01 0.000000000000e+00 
3.382109774189e+01 0.000000000000e+00 
3.386540998303e+01 0.000000000000e+00 
3.398060582451e+01 0.000000000000e+00 
3.402491806565e+01 0.000000000000e+00 
3.413851882640e+01 0.000000000000e+00 
3.418283106754e+01 0.000000000000e+00 
3.429485269638e+01 0.000000000000e+00 
3.433916493752e+01 0.000000000000e+00 
3.444962322928e+01 0.000000000000e+00 
3.449393547042e+01 0.000000000000e+00 
3.460284605876e+01 0.000000000000e+00 
3.464715829990e+01 0.000000000000e+00 
3.475453666040e+01 0.000000000000e+00 
3.479884890154e+01 0.000000000000e+00 
3.490471035493e+01 0.000000000000e+00 
3.494902259607e+01 0.000000000000e+00 
3.505338231124e+01 0.000000000000e+00 
3.509769455238e+01 0.000000000000e+00 
3.520056754686e+01 0.000000000000e+00 
3.524487978800e+01 0.000000000000e+00 
3.534628093098e+01 0.000000000000e+00 
3.539059317212e+01 0.000000000000e+00 
3.549053718215e+01 0.000000000000e+00 
3.553484942329e+01 0.000000000000e+00 
3.563335086877e+01 0.000000000000e+00 
3.567766310991e+01 0.000000000000e+00 
3.577473641979e+01 0.000000000000e+00 
3.581904866093e+01 0.000000000000e+00 
3.591470811714e+01 0.000000000000e+00 
3.595902035828e+01 0.000000000000e+00 
3.605328009606e+01 0.000000000000e+00 
3.609759233720e+01 0.000000000000e+00 
3.619046635579e+01 0.000000000000e+00 
3.623477859693e+01 0.000000000000e+00 
3.632628075449e+01 0.000000000000e+00 
3.637059299563e+01 0.000000000000e+00 
3.646073700687e+01 0.000000000000e+00 
3.650504924801e+01 0.000000000000e+00 
3.659384869483e+01 0.000000000000e+00 
3.663816093597e+01 0.000000000000e+00 
3.672562926749e+01 0.000000000000e+00 
3.676994150863e+01 0.000000000000e+00 
3.685609203609e+01 0.000000000000e+00 
3.690040427723e+01 0.000000000000e+00 
3.698525017669e+01 0.000000000000e+00 
3.702956241783e+01 0.000000000000e+00 
3.711311673548e+01 0.000000000000e+00 
3.715742897662e+01 0.000000000000e+00 
3.723970462874e+01 0.000000000000e+00 
3.728401686988e+01 0.000000000000e+00 
3.736502664288e+01 0.000000000000e+00 
3.740933888402e+01 0.000000000000e+00 
3.748909543697e+01 0.000000000000e+00 
3.753340767811e+01 0.000000000000e+00 
3.761192354271e+01 0.000000000000e+00 
3.765623578385e+01 0.000000000000e+00 
3.773352336697e+01 0.000000000000e+00 
3.777783560811e+01 0.000000000000e+00 
3.785390719427e+01 0.000000000000e+00 
3.789821943541e+01 0.000000000000e+00 
3.797308718400e+01 0.000000000000e+00 
3.801739942514e+01 0.000000000000e+00 
3.809107537295e+01 0.000000000000e+00 
3.813538761409e+01 0.000000000000e+00 
3.820788368032e+01 0.000000000000e+00 
3.825219592146e+01 0.000000000000e+00 
3.832352390484e+01 0.000000000000e+00 
3.836783614598e+01 0.000000000000e+00 
3.843800772727e+01 0.000000000000e+00 
3.848231996841e+01 0.000000000000e+00 
3.855134671000e+01 0.000000000000e+00 
3.859565895114e+01 0.000000000000e+00 
3.866355230215e+01 0.000000000000e+00 
3.870786454329e+01 0.000000000000e+00 
3.877463583914e+01 0.000000000000e+00 
3.881894808027e+01 0.000000000000e+00 
3.888460853978e+01 0.000000000000e+00 
3.892892078091e+01 0.000000000000e+00 
3.899348151381e+01 0.000000000000e+00 
3.903779375495e+01 0.000000000000e+00 
3.910126575885e+01 0.000000000000e+00 
3.914557799999e+01 0.000000000000e+00 
3.920797216005e+01 0.000000000000e+00 
3.925228440119e+01 0.000000000000e+00 
3.931361149752e+01 0.000000000000e+00 
3.935792373865e+01 0.000000000000e+00 
3.941819444319e+01 0.000000000000e+00 
3.946250668433e+01 0.000000000000e+00 
3.952173155785e+01 0.000000000000e+00 
3.956604379899e+01 0.000000000000e+00 
3.962423330109e+01 0.000000000000e+00 
3.966854554223e+01 0.000000000000e+00 
3.972571002812e+01 0.000000000000e+00 
3.977002226926e+01 0.000000000000e+00 
3.982617198670e+01 0.000000000000e+00 
3.987048422784e+01 0.000000000000e+00 
3.992562932704e+01 0.000000000000e+00 
3.996994156818e+01 0.000000000000e+00 
4.002409209594e+01 0.000000000000e+00 
4.006840433708e+01 0.000000000000e+00 
4.012157023629e+01 0.000000000000e+00 
4.016588247743e+01 0.000000000000e+00 
4.021807359427e+01 0.000000000000e+00 
4.026238583541e+01 0.000000000000e+00 
4.031361191874e+01 0.000000000000e+00 
4.035792415988e+01 0.000000000000e+00 
4.040819486056e+01 0.000000000000e+00 
4.045250710170e+01 0.000000000000e+00 
4.050183197192e+01 0.000000000000e+00 
4.054614421306e+01 0.000000000000e+00 
4.059453271094e+01 0.000000000000e+00 
4.063884495208e+01 0.000000000000e+00 
4.068630644352e+01 0.000000000000e+00 
4.073061868466e+01 0.000000000000e+00 
4.077716243999e+01 0.000000000000e+00 
4.082147468113e+01 0.000000000000e+00 
4.086710987702e+01 0.000000000000e+00 
4.091142211816e+01 0.000000000000e+00 
4.095615783948e+01 0.000000000000e+00 
4.100047008062e+01 0.000000000000e+00 
4.104431532225e+01 0.000000000000e+00 
4.108862756339e+01 0.000000000000e+00 
4.113159122941e+01 0.000000000000e+00 
4.117590347055e+01 0.000000000000e+00 
4.121799437608e+01 0.000000000000e+00 
4.126230661722e+01 0.000000000000e+00 
4.130353349278e+01 0.000000000000e+00 
4.134784573392e+01 0.000000000000e+00 
4.138821721931e+01 0.000000000000e+00 
4.143252946045e+01 0.000000000000e+00 
4.147205410657e+01 0.000000000000e+00 
4.151636634771e+01 0.000000000000e+00 
4.155505262350e+01 0.000000000000e+00 
4.159936486464e+01 0.000000000000e+00 
4.163722115614e+01 0.000000000000e+00 
4.168153339728e+01 0.000000000000e+00 
4.171856800407e+01 0.000000000000e+00 
4.176288024521e+01 0.000000000000e+00 
4.179910138479e+01 0.000000000000e+00 
4.184341362593e+01 0.000000000000e+00 
4.187882943264e+01 0.000000000000e+00 
4.192314167378e+01 0.000000000000e+00 
4.195776019794e+01 0.000000000000e+00 
4.200207243908e+01 0.000000000000e+00 
4.203590165385e+01 0.000000000000e+00 
4.208021389499e+01 0.000000000000e+00 
4.211326169527e+01 0.000000000000e+00 
4.215757393641e+01 0.000000000000e+00 
4.218984813786e+01 0.000000000000e+00 
4.223416037900e+01 0.000000000000e+00 
4.226566871698e+01 0.000000000000e+00 
4.230998095812e+01 0.000000000000e+00 
4.234073108930e+01 0.000000000000e+00 
4.238504333044e+01 0.000000000000e+00 
4.241504283696e+01 0.000000000000e+00 
4.245935507810e+01 0.000000000000e+00 
4.248861146906e+01 0.000000000000e+00 
4.253292371020e+01 0.000000000000e+00 
 TITLE = "Profiles along polylines"
 VARIABLES = "DIST" "HEAD" 
 ZONE T="TIME=1.797693134862e+308"
7.488611469064e+00 3.404984213503e+01 
7.532923710203e+00 3.404527588596e+01 
7.911444413330e+00 3.404968895496e+01 
7.955756654469e+00 3.404512254526e+01 
8.330049030469e+00 3.404953881454e+01 
8.374361271609e+00 3.404497224580e+01 
8.744467600339e+00 3.404939165360e+01 
8.788779841479e+00 3.404482492740e+01 
9.154741984359e+00 3.404924741300e+01 
9.199054225498e+00 3.404468053089e+01 
9.560913626012e+00 3.404910603470e+01 
9.605225867152e+00 3.404453899823e+01 
9.963023551435e+00 3.404896746180e+01 
1.000733579257e+01 3.404440027249e+01 
1.036111237768e+01 3.404883163853e+01 
1.040542461882e+01 3.404426429788e+01 
1.075522031570e+01 3.404869851024e+01 
1.079953255684e+01 3.404413101975e+01 
1.114538717318e+01 3.404856802336e+01 
1.118969941432e+01 3.404400038452e+01 
1.153165236004e+01 3.404844012540e+01 
1.157596460118e+01 3.404387233968e+01 
1.191405489633e+01 3.404831476491e+01 
1.195836713747e+01 3.404374683376e+01 
1.229263340697e+01 3.404819189147e+01 
1.233694564811e+01 3.404362381634e+01 
1.266742613231e+01 3.404807145567e+01 
1.271173837345e+01 3.404350323797e+01 
1.303847093046e+01 3.404795340907e+01 
1.308278317160e+01 3.404338505022e+01 
1.340580527983e+01 3.404783770419e+01 
1.345011752097e+01 3.404326920560e+01 
1.376946628659e+01 3.404772429452e+01 
1.381377852773e+01 3.404315565756e+01 
1.412949068177e+01 3.404761313445e+01 
1.417380292291e+01 3.404304436050e+01 
1.448591483388e+01 3.404750417929e+01 
1.453022707502e+01 3.404293526970e+01 
1.483877474574e+01 3.404739738523e+01 
1.488308698688e+01 3.404282834135e+01 
1.518810605921e+01 3.404729270934e+01 
1.523241830035e+01 3.404272353250e+01 
1.553394405971e+01 3.404719010954e+01 
1.557825630085e+01 3.404262080106e+01 
1.587632367814e+01 3.404708954458e+01 
1.592063591928e+01 3.404252010577e+01 
1.621527950059e+01 3.404699097405e+01 
1.625959174173e+01 3.404242140620e+01 
1.655084576472e+01 3.404689435832e+01 
1.659515800586e+01 3.404232466271e+01 
1.688305636683e+01 3.404679965856e+01 
1.692736860797e+01 3.404222983646e+01 
1.721194486331e+01 3.404670683670e+01 
1.725625710445e+01 3.404213688938e+01 
1.753754447497e+01 3.404661585546e+01 
1.758185671610e+01 3.404204578415e+01 
1.785988809095e+01 3.404652667826e+01 
1.790420033209e+01 3.404195648420e+01 
1.817900827030e+01 3.404643926928e+01 
1.822332051144e+01 3.404186895369e+01 
1.849493724842e+01 3.404635359338e+01 
1.853924948956e+01 3.404178315747e+01 
1.880770693577e+01 3.404626961615e+01 
1.885201917691e+01 3.404169906111e+01 
1.911734892696e+01 3.404618730385e+01 
1.916166116810e+01 3.404161663087e+01 
1.942389449917e+01 3.404610662341e+01 
1.946820674031e+01 3.404153583366e+01 
1.972737461337e+01 3.404602754241e+01 
1.977168685451e+01 3.404145663706e+01 
2.002781992574e+01 3.404595002910e+01 
2.007213216688e+01 3.404137900929e+01 
2.032526078595e+01 3.404587405233e+01 
2.036957302709e+01 3.404130291920e+01 
2.061972723814e+01 3.404579958158e+01 
2.066403947928e+01 3.404122833628e+01 
2.091124902692e+01 3.404572658696e+01 
2.095556126806e+01 3.404115523059e+01 
2.119985559817e+01 3.404565503914e+01 
2.124416783931e+01 3.404108357281e+01 
2.148557610242e+01 3.404558490939e+01 
2.152988834355e+01 3.404101333420e+01 
2.176843940064e+01 3.404551616955e+01 
2.181275164178e+01 3.404094448658e+01 
2.204847406492e+01 3.404544879202e+01 
2.209278630606e+01 3.404087700235e+01 
2.232570838156e+01 3.404538274975e+01 
2.237002062270e+01 3.404081085444e+01 
2.260017035677e+01 3.404531801622e+01 
2.264448259791e+01 3.404074601632e+01 
2.287188771450e+01 3.404525456544e+01 
2.291619995564e+01 3.404068246200e+01 
2.314088789942e+01 3.404519237194e+01 
2.318520014056e+01 3.404062016600e+01 
2.340719808245e+01 3.404513141076e+01 
2.345151032359e+01 3.404055910334e+01 
2.367084516106e+01 3.404507165743e+01 
2.371515740220e+01 3.404049924953e+01 
2.393185576731e+01 3.404501308796e+01 
2.397616800845e+01 3.404044058060e+01 
2.419025626789e+01 3.404495567885e+01 
2.423456850903e+01 3.404038307302e+01 
2.444607276433e+01 3.404489940707e+01 
2.449038500547e+01 3.404032670375e+01 
2.469933109552e+01 3.404484425002e+01 
2.474364333666e+01 3.404027145019e+01 
2.495005684311e+01 3.404479018558e+01 
2.499436908425e+01 3.404021729020e+01 
2.519827533387e+01 3.404473719206e+01 
2.524258757501e+01 3.404016420209e+01 
2.544401163971e+01 3.404468524820e+01 
2.548832388085e+01 3.404011216457e+01 
2.568729058264e+01 3.404463433315e+01 
2.573160282378e+01 3.404006115682e+01 
2.592813673725e+01 3.404458442650e+01 
2.597244897839e+01 3.404001115838e+01 
2.616657443034e+01 3.404453550822e+01 
2.621088667148e+01 3.403996214924e+01 
2.640262774595e+01 3.404448755870e+01 
2.644693998709e+01 3.403991410976e+01 
2.663632052749e+01 3.404444055871e+01 
2.668063276863e+01 3.403986702070e+01 
2.686767638007e+01 3.404439448939e+01 
2.691198862121e+01 3.403982086322e+01 
2.709671867509e+01 3.404434933227e+01 
2.714103091623e+01 3.403977561882e+01 
2.732347054725e+01 3.404430506925e+01 
2.736778278839e+01 3.403973126939e+01 
2.754795490176e+01 3.404426168258e+01 
2.759226714290e+01 3.403968779717e+01 
2.777019441376e+01 3.404421915487e+01 
2.781450665490e+01 3.403964518477e+01 
2.799021153028e+01 3.404417746906e+01 
2.803452377142e+01 3.403960341512e+01 
2.820802847478e+01 3.404413660846e+01 
2.825234071592e+01 3.403956247151e+01 
2.842366724903e+01 3.404409655667e+01 
2.846797949017e+01 3.403952233756e+01 
2.863714963489e+01 3.404405729765e+01 
2.868146187603e+01 3.403948299719e+01 
2.884849719612e+01 3.404401881567e+01 
2.889280943726e+01 3.403944443468e+01 
2.905773128272e+01 3.404398109531e+01 
2.910204352386e+01 3.403940663459e+01 
2.926487303000e+01 3.404394412144e+01 
2.930918527114e+01 3.403936958180e+01 
2.946994336024e+01 3.404390787927e+01 
2.951425560138e+01 3.403933326149e+01 
2.967296298693e+01 3.404387235426e+01 
2.971727522806e+01 3.403929765913e+01 
2.987395241632e+01 3.404383753219e+01 
2.991826465746e+01 3.403926276048e+01 
3.007293195158e+01 3.404380339912e+01 
3.011724419272e+01 3.403922855159e+01 
3.026992169161e+01 3.404376994136e+01 
3.031423393275e+01 3.403919501878e+01 
3.046494153514e+01 3.404373714552e+01 
3.050925377628e+01 3.403916214864e+01 
3.065801118212e+01 3.404370499847e+01 
3.070232342325e+01 3.403912992804e+01 
3.084915013254e+01 3.404367348733e+01 
3.089346237368e+01 3.403909834408e+01 
3.103837769272e+01 3.404364259949e+01 
3.108268993386e+01 3.403906738416e+01 
3.122571297697e+01 3.404361232259e+01 
3.127002521811e+01 3.403903703589e+01 
3.141117490857e+01 3.404358264450e+01 
3.145548714971e+01 3.403900728715e+01 
3.159478222104e+01 3.404355355334e+01 
3.163909446217e+01 3.403897812606e+01 
3.177655345931e+01 3.404352503748e+01 
3.182086570045e+01 3.403894954095e+01 
3.195650698349e+01 3.404349708549e+01 
3.200081922463e+01 3.403892152042e+01 
3.213466097255e+01 3.404346968620e+01 
3.217897321369e+01 3.403889405327e+01 
3.231103342271e+01 3.404344282864e+01 
3.235534566385e+01 3.403886712854e+01 
3.248564214852e+01 3.404341650207e+01 
3.252995438966e+01 3.403884073546e+01 
3.265850478644e+01 3.404339069595e+01 
3.270281702758e+01 3.403881486350e+01 
3.282963879840e+01 3.404336539996e+01 
3.287395103954e+01 3.403878950234e+01 
3.299906147006e+01 3.404334060399e+01 
3.304337371120e+01 3.403876464185e+01 
3.316678991439e+01 3.404331629812e+01 
3.321110215553e+01 3.403874027210e+01 
3.333284107501e+01 3.404329247262e+01 
3.337715331615e+01 3.403871638337e+01 
3.349723172444e+01 3.404326911798e+01 
3.354154396557e+01 3.403869296613e+01 
3.365997846746e+01 3.404324622486e+01 
3.370429070860e+01 3.403867001104e+01 
3.382109774189e+01 3.404322378410e+01 
3.386540998303e+01 3.403864750893e+01 
3.398060582451e+01 3.404320178673e+01 
3.402491806565e+01 3.403862545083e+01 
3.413851882640e+01 3.404318022397e+01 
3.418283106754e+01 3.403860382794e+01 
3.429485269638e+01 3.404315908719e+01 
3.433916493752e+01 3.403858263164e+01 
3.444962322928e+01 3.404313836796e+01 
3.449393547042e+01 3.403856185348e+01 
3.460284605876e+01 3.404311805798e+01 
3.464715829990e+01 3.403854148517e+01 
3.475453666040e+01 3.404309814916e+01 
3.479884890154e+01 3.403852151859e+01 
3.490471035493e+01 3.404307863353e+01 
3.494902259607e+01 3.403850194579e+01 
3.505338231124e+01 3.404305950330e+01 
3.509769455238e+01 3.403848275897e+01 
3.520056754686e+01 3.404304075083e+01 
3.524487978800e+01 3.403846395047e+01 
3.534628093098e+01 3.404302236864e+01 
3.539059317212e+01 3.403844551281e+01 
3.549053718215e+01 3.404300434938e+01 
3.553484942329e+01 3.403842743864e+01 
3.563335086877e+01 3.404298668586e+01 
3.567766310991e+01 3.403840972077e+01 
3.577473641979e+01 3.404296937103e+01 
3.581904866093e+01 3.403839235212e+01 
3.591470811714e+01 3.404295239798e+01 
3.595902035828e+01 3.403837532580e+01 
3.605328009606e+01 3.404293575993e+01 
3.609759233720e+01 3.403835863502e+01 
3.619046635579e+01 3.404291945026e+01 
3.623477859693e+01 3.403834227313e+01 
3.632628075449e+01 3.404290346244e+01 
3.637059299563e+01 3.403832623362e+01 
3.646073700687e+01 3.404288779010e+01 
3.650504924801e+01 3.403831051012e+01 
3.659384869483e+01 3.404287242700e+01 
3.663816093597e+01 3.403829509636e+01 
3.672562926749e+01 3.404285736699e+01 
3.676994150863e+01 3.403827998621e+01 
3.685609203609e+01 3.404284260409e+01 
3.690040427723e+01 3.403826517366e+01 
3.698525017669e+01 3.404282813239e+01 
3.702956241783e+01 3.403825065282e+01 
3.711311673548e+01 3.404281394614e+01 
3.715742897662e+01 3.403823641792e+01 
3.723970462874e+01 3.404280003968e+01 
3.728401686988e+01 3.403822246329e+01 
3.736502664288e+01 3.404278640746e+01 
3.740933888402e+01 3.403820878339e+01 
3.748909543697e+01 3.404277304406e+01 
3.753340767811e+01 3.403819537278e+01 
3.761192354271e+01 3.404275994414e+01 
3.765623578385e+01 3.403818222614e+01 
3.773352336697e+01 3.404274710249e+01 
3.777783560811e+01 3.403816933823e+01 
3.785390719427e+01 3.404273451399e+01 
3.789821943541e+01 3.403815670393e+01 
3.797308718400e+01 3.404272217364e+01 
3.801739942514e+01 3.403814431824e+01 
3.809107537295e+01 3.404271007651e+01 
3.813538761409e+01 3.403813217623e+01 
3.820788368032e+01 3.404269821779e+01 
3.825219592146e+01 3.403812027307e+01 
3.832352390484e+01 3.404268659275e+01 
3.836783614598e+01 3.403810860405e+01 
3.843800772727e+01 3.404267519678e+01 
3.848231996841e+01 3.403809716454e+01 
3.855134671000e+01 3.404266402533e+01 
3.859565895114e+01 3.403808594998e+01 
3.866355230215e+01 3.404265307396e+01 
3.870786454329e+01 3.403807495594e+01 
3.877463583914e+01 3.404264233832e+01 
3.881894808027e+01 3.403806417804e+01 
3.888460853978e+01 3.404263181412e+01 
3.892892078091e+01 3.403805361202e+01 
3.899348151381e+01 3.404262149719e+01 
3.903779375495e+01 3.403804325369e+01 
3.910126575885e+01 3.404261138343e+01 
3.914557799999e+01 3.403803309893e+01 
3.920797216005e+01 3.404260146880e+01 
3.925228440119e+01 3.403802314373e+01 
3.931361149752e+01 3.404259174938e+01 
3.935792373865e+01 3.403801338413e+01 
3.941819444319e+01 3.404258222129e+01 
3.946250668433e+01 3.403800381628e+01 
3.952173155785e+01 3.404257288075e+01 
3.956604379899e+01 3.403799443637e+01 
3.962423330109e+01 3.404256372405e+01 
3.966854554223e+01 3.403798524069e+01 
3.972571002812e+01 3.404255474754e+01 
3.977002226926e+01 3.403797622560e+01 
3.982617198670e+01 3.404254594768e+01 
3.987048422784e+01 3.403796738754e+01 
3.992562932704e+01 3.404253732095e+01 
3.996994156818e+01 3.403795872299e+01 
4.002409209594e+01 3.404252886393e+01 
4.006840433708e+01 3.403795022854e+01 
4.012157023629e+01 3.404252057327e+01 
4.016588247743e+01 3.403794190082e+01 
4.021807359427e+01 3.404251244567e+01 
4.026238583541e+01 3.403793373654e+01 
4.031361191874e+01 3.404250447792e+01 
4.035792415988e+01 3.403792573246e+01 
4.040819486056e+01 3.404249666684e+01 
4.045250710170e+01 3.403791788542e+01 
4.050183197192e+01 3.404248900933e+01 
4.054614421306e+01 3.403791019232e+01 
4.059453271094e+01 3.404248150237e+01 
4.063884495208e+01 3.403790265012e+01 
4.068630644352e+01 3.404247414297e+01 
4.073061868466e+01 3.403789525584e+01 
4.077716243999e+01 3.404246692822e+01 
4.082147468113e+01 3.403788800655e+01 
4.086710987702e+01 3.404245985525e+01 
4.091142211816e+01 3.403788089939e+01 
4.095615783948e+01 3.404245292126e+01 
4.100047008062e+01 3.403787393156e+01 
4.104431532225e+01 3.404244612350e+01 
4.108862756339e+01 3.403786710029e+01 
4.113159122941e+01 3.404243945929e+01 
4.117590347055e+01 3.403786040290e+01 
4.121799437608e+01 3.404243292597e+01 
4.126230661722e+01 3.403785383675e+01 
4.130353349278e+01 3.404242652096e+01 
4.134784573392e+01 3.403784739923e+01 
4.138821721931e+01 3.404242024173e+01 
4.143252946045e+01 3.403784108782e+01 
4.147205410657e+01 3.404241408579e+01 
4.151636634771e+01 3.403783490002e+01 
4.155505262350e+01 3.404240805070e+01 
4.159936486464e+01 3.403782883339e+01 
4.163722115614e+01 3.404240213408e+01 
4.168153339728e+01 3.403782288554e+01 
4.171856800407e+01 3.404239633357e+01 
4.176288024521e+01 3.403781705412e+01 
4.179910138479e+01 3.404239064690e+01 
4.184341362593e+01 3.403781133684e+01 
4.187882943264e+01 3.404238507180e+01 
4.192314167378e+01 3.403780573145e+01 
4.195776019794e+01 3.404237960608e+01 
4.200207243908e+01 3.403780023574e+01 
4.203590165385e+01 3.404237424758e+01 
4.208021389499e+01 3.403779484754e+01 
4.211326169527e+01 3.404236899416e+01 
4.215757393641e+01 3.403778956473e+01 
4.218984813786e+01 3.404236384377e+01 
4.223416037900e+01 3.403778438524e+01 
4.226566871698e+01 3.404235879436e+01 
4.230998095812e+01 3.403777930703e+01 
4.234073108930e+01 3.404235384395e+01 
4.238504333044e+01 3.403777432809e+01 
4.241504283696e+01 3.404234899057e+01 
4.245935507810e+01 3.403776944648e+01 
4.248861146906e+01 3.404234423235e+01 
4.253292371020e+01 3.403776466032e+01 
