 TITLE = "Profiles along polylines"
 VARIABLES = "DIST" "HEAD" 
 ZONE T="TIME=0.000000000000e+00"
9.722988566582e+00 0.000000000000e+00 
9.774059798463e+00 0.000000000000e+00 
1.014582151085e+01 0.000000000000e+00 
1.019689274273e+01 0.000000000000e+00 
1.056442612799e+01 0.000000000000e+00 
1.061549735987e+01 0.000000000000e+00 
1.097884469786e+01 0.000000000000e+00 
1.102991592974e+01 0.000000000000e+00 
1.138911908188e+01 0.000000000000e+00 
1.144019031376e+01 0.000000000000e+00 
1.179529072353e+01 0.000000000000e+00 
1.184636195541e+01 0.000000000000e+00 
1.219740064895e+01 0.000000000000e+00 
1.224847188083e+01 0.000000000000e+00 
1.259548947520e+01 0.000000000000e+00 
1.264656070708e+01 0.000000000000e+00 
1.298959741322e+01 0.000000000000e+00 
1.304066864510e+01 0.000000000000e+00 
1.337976427070e+01 0.000000000000e+00 
1.343083550258e+01 0.000000000000e+00 
1.376602945756e+01 0.000000000000e+00 
1.381710068944e+01 0.000000000000e+00 
1.414843199385e+01 0.000000000000e+00 
1.419950322573e+01 0.000000000000e+00 
1.452701050449e+01 0.000000000000e+00 
1.457808173637e+01 0.000000000000e+00 
1.490180322983e+01 0.000000000000e+00 
1.495287446172e+01 0.000000000000e+00 
1.527284802798e+01 0.000000000000e+00 
1.532391925986e+01 0.000000000000e+00 
1.564018237735e+01 0.000000000000e+00 
1.569125360923e+01 0.000000000000e+00 
1.600384338411e+01 0.000000000000e+00 
1.605491461600e+01 0.000000000000e+00 
1.636386777929e+01 0.000000000000e+00 
1.641493901117e+01 0.000000000000e+00 
1.672029193140e+01 0.000000000000e+00 
1.677136316328e+01 0.000000000000e+00 
1.707315184326e+01 0.000000000000e+00 
1.712422307514e+01 0.000000000000e+00 
1.742248315674e+01 0.000000000000e+00 
1.747355438862e+01 0.000000000000e+00 
1.776832115723e+01 0.000000000000e+00 
1.781939238911e+01 0.000000000000e+00 
1.811070077566e+01 0.000000000000e+00 
1.816177200754e+01 0.000000000000e+00 
1.844965659811e+01 0.000000000000e+00 
1.850072782999e+01 0.000000000000e+00 
1.878522286224e+01 0.000000000000e+00 
1.883629409412e+01 0.000000000000e+00 
1.911743346435e+01 0.000000000000e+00 
1.916850469623e+01 0.000000000000e+00 
1.944632196083e+01 0.000000000000e+00 
1.949739319271e+01 0.000000000000e+00 
1.977192157249e+01 0.000000000000e+00 
1.982299280437e+01 0.000000000000e+00 
2.009426518847e+01 0.000000000000e+00 
2.014533642035e+01 0.000000000000e+00 
2.041338536782e+01 0.000000000000e+00 
2.046445659970e+01 0.000000000000e+00 
2.072931434594e+01 0.000000000000e+00 
2.078038557782e+01 0.000000000000e+00 
2.104208403329e+01 0.000000000000e+00 
2.109315526517e+01 0.000000000000e+00 
2.135172602448e+01 0.000000000000e+00 
2.140279725636e+01 0.000000000000e+00 
2.165827159670e+01 0.000000000000e+00 
2.170934282858e+01 0.000000000000e+00 
2.196175171090e+01 0.000000000000e+00 
2.201282294278e+01 0.000000000000e+00 
2.226219702326e+01 0.000000000000e+00 
2.231326825515e+01 0.000000000000e+00 
2.255963788348e+01 0.000000000000e+00 
2.261070911536e+01 0.000000000000e+00 
2.285410433566e+01 0.000000000000e+00 
2.290517556754e+01 0.000000000000e+00 
2.314562612444e+01 0.000000000000e+00 
2.319669735632e+01 0.000000000000e+00 
2.343423269570e+01 0.000000000000e+00 
2.348530392758e+01 0.000000000000e+00 
2.371995319994e+01 0.000000000000e+00 
2.377102443182e+01 0.000000000000e+00 
2.400281649817e+01 0.000000000000e+00 
2.405388773005e+01 0.000000000000e+00 
2.428285116245e+01 0.000000000000e+00 
2.433392239433e+01 0.000000000000e+00 
2.456008547908e+01 0.000000000000e+00 
2.461115671096e+01 0.000000000000e+00 
2.483454745430e+01 0.000000000000e+00 
2.488561868618e+01 0.000000000000e+00 
2.510626481203e+01 0.000000000000e+00 
2.515733604391e+01 0.000000000000e+00 
2.537526499694e+01 0.000000000000e+00 
2.542633622882e+01 0.000000000000e+00 
2.564157517998e+01 0.000000000000e+00 
2.569264641186e+01 0.000000000000e+00 
2.590522225858e+01 0.000000000000e+00 
2.595629349046e+01 0.000000000000e+00 
2.616623286483e+01 0.000000000000e+00 
2.621730409672e+01 0.000000000000e+00 
2.642463336542e+01 0.000000000000e+00 
2.647570459730e+01 0.000000000000e+00 
2.668044986185e+01 0.000000000000e+00 
2.673152109373e+01 0.000000000000e+00 
2.693370819305e+01 0.000000000000e+00 
2.698477942493e+01 0.000000000000e+00 
2.718443394064e+01 0.000000000000e+00 
2.723550517252e+01 0.000000000000e+00 
2.743265243140e+01 0.000000000000e+00 
2.748372366328e+01 0.000000000000e+00 
2.767838873724e+01 0.000000000000e+00 
2.772945996912e+01 0.000000000000e+00 
2.792166768017e+01 0.000000000000e+00 
2.797273891205e+01 0.000000000000e+00 
2.816251383478e+01 0.000000000000e+00 
2.821358506666e+01 0.000000000000e+00 
2.840095152786e+01 0.000000000000e+00 
2.845202275975e+01 0.000000000000e+00 
2.863700484347e+01 0.000000000000e+00 
2.868807607535e+01 0.000000000000e+00 
2.887069762502e+01 0.000000000000e+00 
2.892176885690e+01 0.000000000000e+00 
2.910205347759e+01 0.000000000000e+00 
2.915312470947e+01 0.000000000000e+00 
2.933109577262e+01 0.000000000000e+00 
2.938216700450e+01 0.000000000000e+00 
2.955784764477e+01 0.000000000000e+00 
2.960891887665e+01 0.000000000000e+00 
2.978233199928e+01 0.000000000000e+00 
2.983340323117e+01 0.000000000000e+00 
3.000457151128e+01 0.000000000000e+00 
3.005564274316e+01 0.000000000000e+00 
3.022458862780e+01 0.000000000000e+00 
3.027565985968e+01 0.000000000000e+00 
3.044240557231e+01 0.000000000000e+00 
3.049347680419e+01 0.000000000000e+00 
3.065804434656e+01 0.000000000000e+00 
3.070911557844e+01 0.000000000000e+00 
3.087152673241e+01 0.000000000000e+00 
3.092259796429e+01 0.000000000000e+00 
3.108287429364e+01 0.000000000000e+00 
3.113394552552e+01 0.000000000000e+00 
3.129210838024e+01 0.000000000000e+00 
3.134317961212e+01 0.000000000000e+00 
3.149925012752e+01 0.000000000000e+00 
3.155032135940e+01 0.000000000000e+00 
3.170432045776e+01 0.000000000000e+00 
3.175539168964e+01 0.000000000000e+00 
3.190734008445e+01 0.000000000000e+00 
3.195841131633e+01 0.000000000000e+00 
3.210832951384e+01 0.000000000000e+00 
3.215940074572e+01 0.000000000000e+00 
3.230730904910e+01 0.000000000000e+00 
3.235838028099e+01 0.000000000000e+00 
3.250429878913e+01 0.000000000000e+00 
3.255537002102e+01 0.000000000000e+00 
3.269931863266e+01 0.000000000000e+00 
3.275038986454e+01 0.000000000000e+00 
3.289238827964e+01 0.000000000000e+00 
3.294345951152e+01 0.000000000000e+00 
3.308352723006e+01 0.000000000000e+00 
3.313459846194e+01 0.000000000000e+00 
3.327275479024e+01 0.000000000000e+00 
3.332382602212e+01 0.000000000000e+00 
3.346009007449e+01 0.000000000000e+00 
3.351116130637e+01 0.000000000000e+00 
3.364555200609e+01 0.000000000000e+00 
3.369662323797e+01 0.000000000000e+00 
3.382915931856e+01 0.000000000000e+00 
3.388023055044e+01 0.000000000000e+00 
3.401093055683e+01 0.000000000000e+00 
3.406200178871e+01 0.000000000000e+00 
3.419088408101e+01 0.000000000000e+00 
3.424195531290e+01 0.000000000000e+00 
3.436903807007e+01 0.000000000000e+00 
3.442010930195e+01 0.000000000000e+00 
3.454541052024e+01 0.000000000000e+00 
3.459648175212e+01 0.000000000000e+00 
3.472001924604e+01 0.000000000000e+00 
3.477109047792e+01 0.000000000000e+00 
3.489288188396e+01 0.000000000000e+00 
3.494395311584e+01 0.000000000000e+00 
3.506401589592e+01 0.000000000000e+00 
3.511508712780e+01 0.000000000000e+00 
3.523343856759e+01 0.000000000000e+00 
3.528450979947e+01 0.000000000000e+00 
3.540116701191e+01 0.000000000000e+00 
3.545223824380e+01 0.000000000000e+00 
3.556721817253e+01 0.000000000000e+00 
3.561828940441e+01 0.000000000000e+00 
3.573160882196e+01 0.000000000000e+00 
3.578268005384e+01 0.000000000000e+00 
3.589435556498e+01 0.000000000000e+00 
3.594542679686e+01 0.000000000000e+00 
3.605547483941e+01 0.000000000000e+00 
3.610654607129e+01 0.000000000000e+00 
3.621498292203e+01 0.000000000000e+00 
3.626605415391e+01 0.000000000000e+00 
3.637289592392e+01 0.000000000000e+00 
3.642396715581e+01 0.000000000000e+00 
3.652922979390e+01 0.000000000000e+00 
3.658030102578e+01 0.000000000000e+00 
3.668400032681e+01 0.000000000000e+00 
3.673507155869e+01 0.000000000000e+00 
3.683722315628e+01 0.000000000000e+00 
3.688829438816e+01 0.000000000000e+00 
3.698891375792e+01 0.000000000000e+00 
3.703998498980e+01 0.000000000000e+00 
3.713908745245e+01 0.000000000000e+00 
3.719015868433e+01 0.000000000000e+00 
3.728775940876e+01 0.000000000000e+00 
3.733883064064e+01 0.000000000000e+00 
3.743494464438e+01 0.000000000000e+00 
3.748601587626e+01 0.000000000000e+00 
3.758065802850e+01 0.000000000000e+00 
3.763172926038e+01 0.000000000000e+00 
3.772491427967e+01 0.000000000000e+00 
3.777598551155e+01 0.000000000000e+00 
3.786772796629e+01 0.000000000000e+00 
3.791879919817e+01 0.000000000000e+00 
3.800911351731e+01 0.000000000000e+00 
3.806018474919e+01 0.000000000000e+00 
3.814908521466e+01 0.000000000000e+00 
3.820015644654e+01 0.000000000000e+00 
3.828765719358e+01 0.000000000000e+00 
3.833872842546e+01 0.000000000000e+00 
3.842484345331e+01 0.000000000000e+00 
3.847591468519e+01 0.000000000000e+00 
3.856065785201e+01 0.000000000000e+00 
3.861172908389e+01 0.000000000000e+00 
3.869511410439e+01 0.000000000000e+00 
3.874618533627e+01 0.000000000000e+00 
3.882822579235e+01 0.000000000000e+00 
3.887929702423e+01 0.000000000000e+00 
3.896000636501e+01 0.000000000000e+00 
3.901107759689e+01 0.000000000000e+00 
3.909046913361e+01 0.000000000000e+00 
3.914154036549e+01 0.000000000000e+00 
3.921962727421e+01 0.000000000000e+00 
3.927069850609e+01 0.000000000000e+00 
3.934749383300e+01 0.000000000000e+00 
3.939856506488e+01 0.000000000000e+00 
3.947408172626e+01 0.000000000000e+00 
3.952515295814e+01 0.000000000000e+00 
3.959940374040e+01 0.000000000000e+00 
3.965047497228e+01 0.000000000000e+00 
3.972347253449e+01 0.000000000000e+00 
3.977454376637e+01 0.000000000000e+00 
3.984630064023e+01 0.000000000000e+00 
3.989737187211e+01 0.000000000000e+00 
3.996790046449e+01 0.000000000000e+00 
4.001897169637e+01 0.000000000000e+00 
4.008828429179e+01 0.000000000000e+00 
4.013935552367e+01 0.000000000000e+00 
4.020746428152e+01 0.000000000000e+00 
4.025853551340e+01 0.000000000000e+00 
4.032545247047e+01 0.000000000000e+00 
4.037652370235e+01 0.000000000000e+00 
4.044226077784e+01 0.000000000000e+00 
4.049333200972e+01 0.000000000000e+00 
4.055790100236e+01 0.000000000000e+00 
4.060897223424e+01 0.000000000000e+00 
4.067238482479e+01 0.000000000000e+00 
4.072345605667e+01 0.000000000000e+00 
4.078572380752e+01 0.000000000000e+00 
4.083679503940e+01 0.000000000000e+00 
4.089792939967e+01 0.000000000000e+00 
4.094900063155e+01 0.000000000000e+00 
4.100901293665e+01 0.000000000000e+00 
4.106008416854e+01 0.000000000000e+00 
4.111898563729e+01 0.000000000000e+00 
4.117005686918e+01 0.000000000000e+00 
4.122785861133e+01 0.000000000000e+00 
4.127892984321e+01 0.000000000000e+00 
4.133564285637e+01 0.000000000000e+00 
4.138671408825e+01 0.000000000000e+00 
4.144234925757e+01 0.000000000000e+00 
4.149342048945e+01 0.000000000000e+00 
4.154798859503e+01 0.000000000000e+00 
4.159905982692e+01 0.000000000000e+00 
4.165257154071e+01 0.000000000000e+00 
4.170364277259e+01 0.000000000000e+00 
4.175610865537e+01 0.000000000000e+00 
4.180717988725e+01 0.000000000000e+00 
4.185861039861e+01 0.000000000000e+00 
4.190968163049e+01 0.000000000000e+00 
4.196008712564e+01 0.000000000000e+00 
4.201115835752e+01 0.000000000000e+00 
4.206054908422e+01 0.000000000000e+00 
4.211162031610e+01 0.000000000000e+00 
4.216000642456e+01 0.000000000000e+00 
4.221107765644e+01 0.000000000000e+00 
4.225846919346e+01 0.000000000000e+00 
4.230954042534e+01 0.000000000000e+00 
4.235594733380e+01 0.000000000000e+00 
4.240701856569e+01 0.000000000000e+00 
4.245245069179e+01 0.000000000000e+00 
4.250352192367e+01 0.000000000000e+00 
4.254798901626e+01 0.000000000000e+00 
4.259906024814e+01 0.000000000000e+00 
4.264257195808e+01 0.000000000000e+00 
4.269364318996e+01 0.000000000000e+00 
4.273620906944e+01 0.000000000000e+00 
4.278728030132e+01 0.000000000000e+00 
4.282890980846e+01 0.000000000000e+00 
4.287998104034e+01 0.000000000000e+00 
4.292068354104e+01 0.000000000000e+00 
4.297175477292e+01 0.000000000000e+00 
4.301153953751e+01 0.000000000000e+00 
4.306261076939e+01 0.000000000000e+00 
4.310148697454e+01 0.000000000000e+00 
4.315255820642e+01 0.000000000000e+00 
4.319053493700e+01 0.000000000000e+00 
4.324160616888e+01 0.000000000000e+00 
4.327869241977e+01 0.000000000000e+00 
4.332976365165e+01 0.000000000000e+00 
4.336596832692e+01 0.000000000000e+00 
4.341703955881e+01 0.000000000000e+00 
4.345237147360e+01 0.000000000000e+00 
4.350344270548e+01 0.000000000000e+00 
4.353791059030e+01 0.000000000000e+00 
4.358898182218e+01 0.000000000000e+00 
4.362259431683e+01 0.000000000000e+00 
4.367366554871e+01 0.000000000000e+00 
4.370643120409e+01 0.000000000000e+00 
4.375750243597e+01 0.000000000000e+00 
4.378942972102e+01 0.000000000000e+00 
4.384050095290e+01 0.000000000000e+00 
4.387159825365e+01 0.000000000000e+00 
4.392266948554e+01 0.000000000000e+00 
4.395294510159e+01 0.000000000000e+00 
4.400401633347e+01 0.000000000000e+00 
4.403347848231e+01 0.000000000000e+00 
4.408454971419e+01 0.000000000000e+00 
4.411320653015e+01 0.000000000000e+00 
4.416427776204e+01 0.000000000000e+00 
4.419213729546e+01 0.000000000000e+00 
4.424320852734e+01 0.000000000000e+00 
4.427027875137e+01 0.000000000000e+00 
4.432134998325e+01 0.000000000000e+00 
4.434763879279e+01 0.000000000000e+00 
4.439871002467e+01 0.000000000000e+00 
4.442422523538e+01 0.000000000000e+00 
4.447529646726e+01 0.000000000000e+00 
4.450004581450e+01 0.000000000000e+00 
4.455111704638e+01 0.000000000000e+00 
4.457510818682e+01 0.000000000000e+00 
4.462617941870e+01 0.000000000000e+00 
4.464941993448e+01 0.000000000000e+00 
4.470049116636e+01 0.000000000000e+00 
4.472298856658e+01 0.000000000000e+00 
4.477405979846e+01 0.000000000000e+00 
 TITLE = "Profiles along polylines"
 VARIABLES = "DIST" "HEAD" 
 ZONE T="TIME=1.797693134862e+308"
9.722988566582e+00 3.378624560942e+01 
9.774059798463e+00 3.377946362333e+01 
1.014582151085e+01 3.378608437254e+01 
1.019689274273e+01 3.377930217046e+01 
1.056442612799e+01 3.378592587034e+01 
1.061549735987e+01 3.377914337340e+01 
1.097884469786e+01 3.378577005928e+01 
1.102991592974e+01 3.377898716677e+01 
1.138911908188e+01 3.378561689304e+01 
1.144019031376e+01 3.377883350337e+01 
1.179529072353e+01 3.378546632608e+01 
1.184636195541e+01 3.377868234323e+01 
1.219740064895e+01 3.378531831456e+01 
1.224847188083e+01 3.377853364955e+01 
1.259548947520e+01 3.378517281638e+01 
1.264656070708e+01 3.377838738732e+01 
1.298959741322e+01 3.378502979101e+01 
1.304066864510e+01 3.377824352286e+01 
1.337976427070e+01 3.378488919929e+01 
1.343083550258e+01 3.377810202366e+01 
1.376602945756e+01 3.378475100325e+01 
1.381710068944e+01 3.377796285826e+01 
1.414843199385e+01 3.378461516596e+01 
1.419950322573e+01 3.377782599612e+01 
1.452701050449e+01 3.378448165137e+01 
1.457808173637e+01 3.377769140741e+01 
1.490180322983e+01 3.378435042429e+01 
1.495287446172e+01 3.377755906289e+01 
1.527284802798e+01 3.378422145019e+01 
1.532391925986e+01 3.377742893374e+01 
1.564018237735e+01 3.378409469519e+01 
1.569125360923e+01 3.377730099143e+01 
1.600384338411e+01 3.378397012598e+01 
1.605491461600e+01 3.377717520760e+01 
1.636386777929e+01 3.378384770971e+01 
1.641493901117e+01 3.377705155400e+01 
1.672029193140e+01 3.378372741401e+01 
1.677136316328e+01 3.377693000243e+01 
1.707315184326e+01 3.378360920688e+01 
1.712422307514e+01 3.377681052469e+01 
1.742248315674e+01 3.378349305670e+01 
1.747355438862e+01 3.377669309254e+01 
1.776832115723e+01 3.378337893218e+01 
1.781939238911e+01 3.377657767776e+01 
1.811070077566e+01 3.378326680236e+01 
1.816177200754e+01 3.377646425206e+01 
1.844965659811e+01 3.378315663657e+01 
1.850072782999e+01 3.377635278719e+01 
1.878522286224e+01 3.378304840444e+01 
1.883629409412e+01 3.377624325486e+01 
1.911743346435e+01 3.378294207587e+01 
1.916850469623e+01 3.377613562684e+01 
1.944632196083e+01 3.378283762107e+01 
1.949739319271e+01 3.377602987493e+01 
1.977192157249e+01 3.378273501052e+01 
1.982299280437e+01 3.377592597101e+01 
2.009426518847e+01 3.378263421497e+01 
2.014533642035e+01 3.377582388706e+01 
2.041338536782e+01 3.378253520550e+01 
2.046445659970e+01 3.377572359517e+01 
2.072931434594e+01 3.378243795344e+01 
2.078038557782e+01 3.377562506759e+01 
2.104208403329e+01 3.378234243043e+01 
2.109315526517e+01 3.377552827672e+01 
2.135172602448e+01 3.378224860841e+01 
2.140279725636e+01 3.377543319516e+01 
2.165827159670e+01 3.378215645965e+01 
2.170934282858e+01 3.377533979569e+01 
2.196175171090e+01 3.378206595669e+01 
2.201282294278e+01 3.377524805133e+01 
2.226219702326e+01 3.378197707243e+01 
2.231326825515e+01 3.377515793536e+01 
2.255963788348e+01 3.378188978005e+01 
2.261070911536e+01 3.377506942126e+01 
2.285410433566e+01 3.378180405309e+01 
2.290517556754e+01 3.377498248282e+01 
2.314562612444e+01 3.378171986540e+01 
2.319669735632e+01 3.377489709409e+01 
2.343423269570e+01 3.378163719116e+01 
2.348530392758e+01 3.377481322941e+01 
2.371995319994e+01 3.378155600490e+01 
2.377102443182e+01 3.377473086341e+01 
2.400281649817e+01 3.378147628148e+01 
2.405388773005e+01 3.377464997105e+01 
2.428285116245e+01 3.378139799610e+01 
2.433392239433e+01 3.377457052756e+01 
2.456008547908e+01 3.378132112430e+01 
2.461115671096e+01 3.377449250852e+01 
2.483454745430e+01 3.378124564196e+01 
2.488561868618e+01 3.377441588981e+01 
2.510626481203e+01 3.378117152531e+01 
2.515733604391e+01 3.377434064765e+01 
2.537526499694e+01 3.378109875092e+01 
2.542633622882e+01 3.377426675858e+01 
2.564157517998e+01 3.378102729570e+01 
2.569264641186e+01 3.377419419948e+01 
2.590522225858e+01 3.378095713691e+01 
2.595629349046e+01 3.377412294753e+01 
2.616623286483e+01 3.378088825212e+01 
2.621730409672e+01 3.377405298029e+01 
2.642463336542e+01 3.378082061929e+01 
2.647570459730e+01 3.377398427562e+01 
2.668044986185e+01 3.378075421668e+01 
2.673152109373e+01 3.377391681171e+01 
2.693370819305e+01 3.378068902289e+01 
2.698477942493e+01 3.377385056711e+01 
2.718443394064e+01 3.378062501688e+01 
2.723550517252e+01 3.377378552066e+01 
2.743265243140e+01 3.378056217790e+01 
2.748372366328e+01 3.377372165158e+01 
2.767838873724e+01 3.378050048556e+01 
2.772945996912e+01 3.377365893937e+01 
2.792166768017e+01 3.378043991979e+01 
2.797273891205e+01 3.377359736388e+01 
2.816251383478e+01 3.378038046084e+01 
2.821358506666e+01 3.377353690528e+01 
2.840095152786e+01 3.378032208927e+01 
2.845202275975e+01 3.377347754406e+01 
2.863700484347e+01 3.378026478598e+01 
2.868807607535e+01 3.377341926104e+01 
2.887069762502e+01 3.378020853215e+01 
2.892176885690e+01 3.377336203732e+01 
2.910205347759e+01 3.378015330931e+01 
2.915312470947e+01 3.377330585435e+01 
2.933109577262e+01 3.378009909927e+01 
2.938216700450e+01 3.377325069387e+01 
2.955784764477e+01 3.378004588413e+01 
2.960891887665e+01 3.377319653792e+01 
2.978233199928e+01 3.377999364632e+01 
2.983340323117e+01 3.377314336886e+01 
3.000457151128e+01 3.377994236855e+01 
3.005564274316e+01 3.377309116932e+01 
3.022458862780e+01 3.377989203382e+01 
3.027565985968e+01 3.377303992226e+01 
3.044240557231e+01 3.377984262541e+01 
3.049347680419e+01 3.377298961090e+01 
3.065804434656e+01 3.377979412690e+01 
3.070911557844e+01 3.377294021876e+01 
3.087152673241e+01 3.377974652214e+01 
3.092259796429e+01 3.377289172963e+01 
3.108287429364e+01 3.377969979525e+01 
3.113394552552e+01 3.377284412759e+01 
3.129210838024e+01 3.377965393062e+01 
3.134317961212e+01 3.377279739701e+01 
3.149925012752e+01 3.377960891291e+01 
3.155032135940e+01 3.377275152248e+01 
3.170432045776e+01 3.377956472706e+01 
3.175539168964e+01 3.377270648891e+01 
3.190734008445e+01 3.377952135824e+01 
3.195841131633e+01 3.377266228145e+01 
3.210832951384e+01 3.377947879189e+01 
3.215940074572e+01 3.377261888550e+01 
3.230730904910e+01 3.377943701370e+01 
3.235838028099e+01 3.377257628672e+01 
3.250429878913e+01 3.377939600961e+01 
3.255537002102e+01 3.377253447102e+01 
3.269931863266e+01 3.377935576579e+01 
3.275038986454e+01 3.377249342457e+01 
3.289238827964e+01 3.377931626866e+01 
3.294345951152e+01 3.377245313377e+01 
3.308352723006e+01 3.377927750487e+01 
3.313459846194e+01 3.377241358524e+01 
3.327275479024e+01 3.377923946130e+01 
3.332382602212e+01 3.377237476587e+01 
3.346009007449e+01 3.377920212506e+01 
3.351116130637e+01 3.377233666274e+01 
3.364555200609e+01 3.377916548349e+01 
3.369662323797e+01 3.377229926320e+01 
3.382915931856e+01 3.377912952414e+01 
3.388023055044e+01 3.377226255479e+01 
3.401093055683e+01 3.377909423478e+01 
3.406200178871e+01 3.377222652528e+01 
3.419088408101e+01 3.377905960338e+01 
3.424195531290e+01 3.377219116265e+01 
3.436903807007e+01 3.377902561814e+01 
3.442010930195e+01 3.377215645509e+01 
3.454541052024e+01 3.377899226745e+01 
3.459648175212e+01 3.377212239100e+01 
3.472001924604e+01 3.377895953990e+01 
3.477109047792e+01 3.377208895899e+01 
3.489288188396e+01 3.377892742429e+01 
3.494395311584e+01 3.377205614785e+01 
3.506401589592e+01 3.377889590961e+01 
3.511508712780e+01 3.377202394660e+01 
3.523343856759e+01 3.377886498502e+01 
3.528450979947e+01 3.377199234441e+01 
3.540116701191e+01 3.377883463991e+01 
3.545223824380e+01 3.377196133067e+01 
3.556721817253e+01 3.377880486382e+01 
3.561828940441e+01 3.377193089495e+01 
3.573160882196e+01 3.377877564648e+01 
3.578268005384e+01 3.377190102698e+01 
3.589435556498e+01 3.377874697781e+01 
3.594542679686e+01 3.377187171670e+01 
3.605547483941e+01 3.377871884788e+01 
3.610654607129e+01 3.377184295421e+01 
3.621498292203e+01 3.377869124695e+01 
3.626605415391e+01 3.377181472978e+01 
3.637289592392e+01 3.377866416545e+01 
3.642396715581e+01 3.377178703385e+01 
3.652922979390e+01 3.377863759396e+01 
3.658030102578e+01 3.377175985703e+01 
3.668400032681e+01 3.377861152325e+01 
3.673507155869e+01 3.377173319009e+01 
3.683722315628e+01 3.377858594422e+01 
3.688829438816e+01 3.377170702396e+01 
3.698891375792e+01 3.377856084794e+01 
3.703998498980e+01 3.377168134972e+01 
3.713908745245e+01 3.377853622564e+01 
3.719015868433e+01 3.377165615862e+01 
3.728775940876e+01 3.377851206870e+01 
3.733883064064e+01 3.377163144205e+01 
3.743494464438e+01 3.377848836863e+01 
3.748601587626e+01 3.377160719153e+01 
3.758065802850e+01 3.377846511711e+01 
3.763172926038e+01 3.377158339876e+01 
3.772491427967e+01 3.377844230596e+01 
3.777598551155e+01 3.377156005556e+01 
3.786772796629e+01 3.377841992714e+01 
3.791879919817e+01 3.377153715389e+01 
3.800911351731e+01 3.377839797272e+01 
3.806018474919e+01 3.377151468585e+01 
3.814908521466e+01 3.377837643496e+01 
3.820015644654e+01 3.377149264368e+01 
3.828765719358e+01 3.377835530621e+01 
3.833872842546e+01 3.377147101974e+01 
3.842484345331e+01 3.377833457898e+01 
3.847591468519e+01 3.377144980653e+01 
3.856065785201e+01 3.377831424588e+01 
3.861172908389e+01 3.377142899667e+01 
3.869511410439e+01 3.377829429967e+01 
3.874618533627e+01 3.377140858290e+01 
3.882822579235e+01 3.377827473324e+01 
3.887929702423e+01 3.377138855810e+01 
3.896000636501e+01 3.377825553958e+01 
3.901107759689e+01 3.377136891526e+01 
3.909046913361e+01 3.377823671181e+01 
3.914154036549e+01 3.377134964748e+01 
3.921962727421e+01 3.377821824319e+01 
3.927069850609e+01 3.377133074798e+01 
3.934749383300e+01 3.377820012707e+01 
3.939856506488e+01 3.377131221009e+01 
3.947408172626e+01 3.377818235692e+01 
3.952515295814e+01 3.377129402727e+01 
3.959940374040e+01 3.377816492633e+01 
3.965047497228e+01 3.377127619307e+01 
3.972347253449e+01 3.377814782900e+01 
3.977454376637e+01 3.377125870115e+01 
3.984630064023e+01 3.377813105873e+01 
3.989737187211e+01 3.377124154528e+01 
3.996790046449e+01 3.377811460945e+01 
4.001897169637e+01 3.377122471933e+01 
4.008828429179e+01 3.377809847517e+01 
4.013935552367e+01 3.377120821728e+01 
4.020746428152e+01 3.377808265002e+01 
4.025853551340e+01 3.377119203321e+01 
4.032545247047e+01 3.377806712823e+01 
4.037652370235e+01 3.377117616128e+01 
4.044226077784e+01 3.377805190412e+01 
4.049333200972e+01 3.377116059576e+01 
4.055790100236e+01 3.377803697213e+01 
4.060897223424e+01 3.377114533103e+01 
4.067238482479e+01 3.377802232677e+01 
4.072345605667e+01 3.377113036154e+01 
4.078572380752e+01 3.377800796268e+01 
4.083679503940e+01 3.377111568185e+01 
4.089792939967e+01 3.377799387456e+01 
4.094900063155e+01 3.377110128660e+01 
4.100901293665e+01 3.377798005723e+01 
4.106008416854e+01 3.377108717051e+01 
4.111898563729e+01 3.377796650558e+01 
4.117005686918e+01 3.377107332842e+01 
4.122785861133e+01 3.377795321461e+01 
4.127892984321e+01 3.377105975523e+01 
4.133564285637e+01 3.377794017939e+01 
4.138671408825e+01 3.377104644594e+01 
4.144234925757e+01 3.377792739510e+01 
4.149342048945e+01 3.377103339562e+01 
4.154798859503e+01 3.377791485698e+01 
4.159905982692e+01 3.377102059943e+01 
4.165257154071e+01 3.377790256036e+01 
4.170364277259e+01 3.377100805262e+01 
4.175610865537e+01 3.377789050067e+01 
4.180717988725e+01 3.377099575052e+01 
4.185861039861e+01 3.377787867342e+01 
4.190968163049e+01 3.377098368853e+01 
4.196008712564e+01 3.377786707417e+01 
4.201115835752e+01 3.377097186213e+01 
4.206054908422e+01 3.377785569859e+01 
4.211162031610e+01 3.377096026689e+01 
4.216000642456e+01 3.377784454242e+01 
4.221107765644e+01 3.377094889844e+01 
4.225846919346e+01 3.377783360146e+01 
4.230954042534e+01 3.377093775249e+01 
4.235594733380e+01 3.377782287163e+01 
4.240701856569e+01 3.377092682484e+01 
4.245245069179e+01 3.377781234886e+01 
4.250352192367e+01 3.377091611134e+01 
4.254798901626e+01 3.377780202921e+01 
4.259906024814e+01 3.377090560792e+01 
4.264257195808e+01 3.377779190877e+01 
4.269364318996e+01 3.377089531059e+01 
4.273620906944e+01 3.377778198374e+01 
4.278728030132e+01 3.377088521543e+01 
4.282890980846e+01 3.377777225035e+01 
4.287998104034e+01 3.377087531857e+01 
4.292068354104e+01 3.377776270493e+01 
4.297175477292e+01 3.377086561622e+01 
4.301153953751e+01 3.377775334385e+01 
4.306261076939e+01 3.377085610466e+01 
4.310148697454e+01 3.377774416357e+01 
4.315255820642e+01 3.377084678023e+01 
4.319053493700e+01 3.377773516061e+01 
4.324160616888e+01 3.377083763932e+01 
4.327869241977e+01 3.377772633154e+01 
4.332976365165e+01 3.377082867841e+01 
4.336596832692e+01 3.377771767300e+01 
4.341703955881e+01 3.377081989402e+01 
4.345237147360e+01 3.377770918171e+01 
4.350344270548e+01 3.377081128272e+01 
4.353791059030e+01 3.377770085444e+01 
4.358898182218e+01 3.377080284117e+01 
4.362259431683e+01 3.377769268800e+01 
4.367366554871e+01 3.377079456606e+01 
4.370643120409e+01 3.377768467930e+01 
4.375750243597e+01 3.377078645412e+01 
4.378942972102e+01 3.377767682529e+01 
4.384050095290e+01 3.377077850217e+01 
4.387159825365e+01 3.377766912296e+01 
4.392266948554e+01 3.377077070704e+01 
4.395294510159e+01 3.377766156940e+01 
4.400401633347e+01 3.377076306564e+01 
4.403347848231e+01 3.377765416173e+01 
4.408454971419e+01 3.377075557489e+01 
4.411320653015e+01 3.377764689714e+01 
4.416427776204e+01 3.377074823177e+01 
4.419213729546e+01 3.377763977287e+01 
4.424320852734e+01 3.377074103330e+01 
4.427027875137e+01 3.377763278623e+01 
4.432134998325e+01 3.377073397654e+01 
4.434763879279e+01 3.377762593458e+01 
4.439871002467e+01 3.377072705855e+01 
4.442422523538e+01 3.377761921534e+01 
4.447529646726e+01 3.377072027646e+01 
4.450004581450e+01 3.377761262598e+01 
4.455111704638e+01 3.377071362740e+01 
4.457510818682e+01 3.377760616405e+01 
4.462617941870e+01 3.377070710853e+01 
4.464941993448e+01 3.377759982716e+01 
4.470049116636e+01 3.377070071702e+01 
4.472298856658e+01 3.377759361297e+01 
4.477405979846e+01 3.377069445008e+01 
