 TITLE = "Profiles along polylines"
 VARIABLES = "DIST" "HEAD" 
 ZONE T="TIME=0.000000000000e+00"
9.544222204615e+01 0.000000000000e+00 
9.586505499042e+01 0.000000000000e+00 
9.628365960756e+01 0.000000000000e+00 
9.669807817743e+01 0.000000000000e+00 
9.710835256145e+01 0.000000000000e+00 
9.751452420311e+01 0.000000000000e+00 
9.791663412853e+01 0.000000000000e+00 
9.831472295478e+01 0.000000000000e+00 
9.870883089280e+01 0.000000000000e+00 
9.909899775028e+01 0.000000000000e+00 
9.948526293714e+01 0.000000000000e+00 
9.986766547343e+01 0.000000000000e+00 
1.002462439841e+02 0.000000000000e+00 
1.006210367094e+02 0.000000000000e+00 
1.009920815076e+02 0.000000000000e+00 
1.013594158569e+02 0.000000000000e+00 
1.017230768637e+02 0.000000000000e+00 
 TITLE = "Profiles along polylines"
 VARIABLES = "DIST" "HEAD" 
 ZONE T="TIME=1.797693134862e+308"
9.544222204615e+01 3.028760552271e+01 
9.586505499042e+01 3.028694410897e+01 
9.628365960756e+01 3.028629220195e+01 
9.669807817743e+01 3.028564968486e+01 
9.710835256145e+01 3.028501643034e+01 
9.751452420311e+01 3.028439230682e+01 
9.791663412853e+01 3.028377718136e+01 
9.831472295478e+01 3.028317092077e+01 
9.870883089280e+01 3.028257339201e+01 
9.909899775028e+01 3.028198446234e+01 
9.948526293714e+01 3.028140399937e+01 
9.986766547343e+01 3.028083187112e+01 
1.002462439841e+02 3.028026794608e+01 
1.006210367094e+02 3.027971209332e+01 
1.009920815076e+02 3.027916418254e+01 
1.013594158569e+02 3.027862408426e+01 
1.017230768637e+02 3.027809166980e+01 
