 TITLE = "Profiles along polylines"
 VARIABLES = "DIST" "HEAD" 
 ZONE T="TIME=0.000000000000e+00"
1.298212799101e+01 0.000000000000e+00 
1.309486164049e+01 0.000000000000e+00 
1.340496093528e+01 0.000000000000e+00 
1.351769458476e+01 0.000000000000e+00 
1.382356555242e+01 0.000000000000e+00 
1.393629920190e+01 0.000000000000e+00 
1.423798412229e+01 0.000000000000e+00 
1.435071777177e+01 0.000000000000e+00 
1.464825850631e+01 0.000000000000e+00 
1.476099215579e+01 0.000000000000e+00 
1.505443014796e+01 0.000000000000e+00 
1.516716379744e+01 0.000000000000e+00 
1.545654007338e+01 0.000000000000e+00 
1.556927372287e+01 0.000000000000e+00 
1.585462889963e+01 0.000000000000e+00 
1.596736254912e+01 0.000000000000e+00 
1.624873683765e+01 0.000000000000e+00 
1.636147048713e+01 0.000000000000e+00 
1.663890369513e+01 0.000000000000e+00 
1.675163734461e+01 0.000000000000e+00 
1.702516888199e+01 0.000000000000e+00 
1.713790253147e+01 0.000000000000e+00 
1.740757141828e+01 0.000000000000e+00 
1.752030506776e+01 0.000000000000e+00 
1.778614992892e+01 0.000000000000e+00 
1.789888357840e+01 0.000000000000e+00 
1.816094265426e+01 0.000000000000e+00 
1.827367630375e+01 0.000000000000e+00 
1.853198745241e+01 0.000000000000e+00 
1.864472110189e+01 0.000000000000e+00 
1.889932180178e+01 0.000000000000e+00 
1.901205545127e+01 0.000000000000e+00 
1.926298280854e+01 0.000000000000e+00 
1.937571645803e+01 0.000000000000e+00 
1.962300720372e+01 0.000000000000e+00 
1.973574085320e+01 0.000000000000e+00 
1.997943135583e+01 0.000000000000e+00 
2.009216500532e+01 0.000000000000e+00 
2.033229126769e+01 0.000000000000e+00 
2.044502491718e+01 0.000000000000e+00 
2.068162258117e+01 0.000000000000e+00 
2.079435623065e+01 0.000000000000e+00 
2.102746058166e+01 0.000000000000e+00 
2.114019423114e+01 0.000000000000e+00 
2.136984020009e+01 0.000000000000e+00 
2.148257384958e+01 0.000000000000e+00 
2.170879602254e+01 0.000000000000e+00 
2.182152967202e+01 0.000000000000e+00 
2.204436228667e+01 0.000000000000e+00 
2.215709593616e+01 0.000000000000e+00 
2.237657288878e+01 0.000000000000e+00 
2.248930653826e+01 0.000000000000e+00 
2.270546138526e+01 0.000000000000e+00 
2.281819503475e+01 0.000000000000e+00 
2.303106099692e+01 0.000000000000e+00 
2.314379464640e+01 0.000000000000e+00 
2.335340461290e+01 0.000000000000e+00 
2.346613826239e+01 0.000000000000e+00 
2.367252479225e+01 0.000000000000e+00 
2.378525844174e+01 0.000000000000e+00 
2.398845377037e+01 0.000000000000e+00 
2.410118741985e+01 0.000000000000e+00 
2.430122345772e+01 0.000000000000e+00 
2.441395710720e+01 0.000000000000e+00 
2.461086544891e+01 0.000000000000e+00 
2.472359909839e+01 0.000000000000e+00 
2.491741102113e+01 0.000000000000e+00 
2.503014467061e+01 0.000000000000e+00 
2.522089113533e+01 0.000000000000e+00 
2.533362478481e+01 0.000000000000e+00 
2.552133644770e+01 0.000000000000e+00 
2.563407009718e+01 0.000000000000e+00 
2.581877730791e+01 0.000000000000e+00 
2.593151095739e+01 0.000000000000e+00 
2.611324376010e+01 0.000000000000e+00 
2.622597740958e+01 0.000000000000e+00 
2.640476554887e+01 0.000000000000e+00 
2.651749919836e+01 0.000000000000e+00 
2.669337212013e+01 0.000000000000e+00 
2.680610576961e+01 0.000000000000e+00 
2.697909262437e+01 0.000000000000e+00 
2.709182627386e+01 0.000000000000e+00 
2.726195592260e+01 0.000000000000e+00 
2.737468957209e+01 0.000000000000e+00 
2.754199058688e+01 0.000000000000e+00 
2.765472423636e+01 0.000000000000e+00 
2.781922490351e+01 0.000000000000e+00 
2.793195855300e+01 0.000000000000e+00 
2.809368687873e+01 0.000000000000e+00 
2.820642052821e+01 0.000000000000e+00 
2.836540423646e+01 0.000000000000e+00 
2.847813788594e+01 0.000000000000e+00 
2.863440442137e+01 0.000000000000e+00 
2.874713807086e+01 0.000000000000e+00 
2.890071460441e+01 0.000000000000e+00 
2.901344825389e+01 0.000000000000e+00 
2.916436168302e+01 0.000000000000e+00 
2.927709533250e+01 0.000000000000e+00 
2.942537228927e+01 0.000000000000e+00 
2.953810593875e+01 0.000000000000e+00 
2.968377278985e+01 0.000000000000e+00 
2.979650643934e+01 0.000000000000e+00 
2.993958928629e+01 0.000000000000e+00 
3.005232293577e+01 0.000000000000e+00 
3.019284761748e+01 0.000000000000e+00 
3.030558126696e+01 0.000000000000e+00 
3.044357336507e+01 0.000000000000e+00 
3.055630701455e+01 0.000000000000e+00 
3.069179185583e+01 0.000000000000e+00 
3.080452550532e+01 0.000000000000e+00 
3.093752816167e+01 0.000000000000e+00 
3.105026181115e+01 0.000000000000e+00 
3.118080710460e+01 0.000000000000e+00 
3.129354075409e+01 0.000000000000e+00 
3.142165325921e+01 0.000000000000e+00 
3.153438690869e+01 0.000000000000e+00 
3.166009095230e+01 0.000000000000e+00 
3.177282460178e+01 0.000000000000e+00 
3.189614426791e+01 0.000000000000e+00 
3.200887791739e+01 0.000000000000e+00 
3.212983704945e+01 0.000000000000e+00 
3.224257069894e+01 0.000000000000e+00 
3.236119290202e+01 0.000000000000e+00 
3.247392655151e+01 0.000000000000e+00 
3.259023519705e+01 0.000000000000e+00 
3.270296884653e+01 0.000000000000e+00 
3.281698706920e+01 0.000000000000e+00 
3.292972071869e+01 0.000000000000e+00 
3.304147142372e+01 0.000000000000e+00 
3.315420507320e+01 0.000000000000e+00 
3.326371093571e+01 0.000000000000e+00 
3.337644458520e+01 0.000000000000e+00 
3.348372805224e+01 0.000000000000e+00 
3.359646170172e+01 0.000000000000e+00 
3.370154499674e+01 0.000000000000e+00 
3.381427864622e+01 0.000000000000e+00 
3.391718377099e+01 0.000000000000e+00 
3.402991742047e+01 0.000000000000e+00 
3.413066615685e+01 0.000000000000e+00 
3.424339980633e+01 0.000000000000e+00 
3.434201371807e+01 0.000000000000e+00 
3.445474736756e+01 0.000000000000e+00 
3.455124780467e+01 0.000000000000e+00 
3.466398145416e+01 0.000000000000e+00 
3.475838955195e+01 0.000000000000e+00 
3.487112320144e+01 0.000000000000e+00 
3.496345988219e+01 0.000000000000e+00 
3.507619353168e+01 0.000000000000e+00 
3.516647950888e+01 0.000000000000e+00 
3.527921315836e+01 0.000000000000e+00 
3.536746893827e+01 0.000000000000e+00 
3.548020258776e+01 0.000000000000e+00 
3.556644847354e+01 0.000000000000e+00 
3.567918212302e+01 0.000000000000e+00 
3.576343821357e+01 0.000000000000e+00 
3.587617186305e+01 0.000000000000e+00 
3.595845805709e+01 0.000000000000e+00 
3.607119170658e+01 0.000000000000e+00 
3.615152770407e+01 0.000000000000e+00 
3.626426135355e+01 0.000000000000e+00 
3.634266665449e+01 0.000000000000e+00 
3.645540030397e+01 0.000000000000e+00 
3.653189421467e+01 0.000000000000e+00 
3.664462786416e+01 0.000000000000e+00 
3.671922949892e+01 0.000000000000e+00 
3.683196314841e+01 0.000000000000e+00 
3.690469143052e+01 0.000000000000e+00 
3.701742508000e+01 0.000000000000e+00 
3.708829874299e+01 0.000000000000e+00 
3.720103239247e+01 0.000000000000e+00 
3.727006998126e+01 0.000000000000e+00 
3.738280363074e+01 0.000000000000e+00 
3.745002350545e+01 0.000000000000e+00 
3.756275715493e+01 0.000000000000e+00 
3.762817749450e+01 0.000000000000e+00 
3.774091114399e+01 0.000000000000e+00 
3.780454994467e+01 0.000000000000e+00 
3.791728359415e+01 0.000000000000e+00 
3.797915867047e+01 0.000000000000e+00 
3.809189231996e+01 0.000000000000e+00 
3.815202130839e+01 0.000000000000e+00 
3.826475495787e+01 0.000000000000e+00 
3.832315532035e+01 0.000000000000e+00 
3.843588896983e+01 0.000000000000e+00 
3.849257799202e+01 0.000000000000e+00 
3.860531164150e+01 0.000000000000e+00 
3.866030643635e+01 0.000000000000e+00 
3.877304008583e+01 0.000000000000e+00 
3.882635759696e+01 0.000000000000e+00 
3.893909124645e+01 0.000000000000e+00 
3.899074824639e+01 0.000000000000e+00 
3.910348189587e+01 0.000000000000e+00 
3.915349498941e+01 0.000000000000e+00 
3.926622863890e+01 0.000000000000e+00 
3.931461426384e+01 0.000000000000e+00 
3.942734791333e+01 0.000000000000e+00 
3.947412234646e+01 0.000000000000e+00 
3.958685599594e+01 0.000000000000e+00 
3.963203534835e+01 0.000000000000e+00 
3.974476899784e+01 0.000000000000e+00 
3.978836921833e+01 0.000000000000e+00 
3.990110286781e+01 0.000000000000e+00 
3.994313975124e+01 0.000000000000e+00 
4.005587340072e+01 0.000000000000e+00 
4.009636258071e+01 0.000000000000e+00 
4.020909623019e+01 0.000000000000e+00 
4.024805318235e+01 0.000000000000e+00 
4.036078683184e+01 0.000000000000e+00 
4.039822687688e+01 0.000000000000e+00 
4.051096052636e+01 0.000000000000e+00 
4.054689883319e+01 0.000000000000e+00 
4.065963248268e+01 0.000000000000e+00 
4.069408406881e+01 0.000000000000e+00 
4.080681771830e+01 0.000000000000e+00 
4.083979745293e+01 0.000000000000e+00 
4.095253110241e+01 0.000000000000e+00 
4.098405370410e+01 0.000000000000e+00 
4.109678735359e+01 0.000000000000e+00 
4.112686739072e+01 0.000000000000e+00 
4.123960104020e+01 0.000000000000e+00 
4.126825294174e+01 0.000000000000e+00 
4.138098659123e+01 0.000000000000e+00 
4.140822463909e+01 0.000000000000e+00 
4.152095828857e+01 0.000000000000e+00 
4.154679661801e+01 0.000000000000e+00 
4.165953026749e+01 0.000000000000e+00 
4.168398287774e+01 0.000000000000e+00 
4.179671652722e+01 0.000000000000e+00 
4.181979727644e+01 0.000000000000e+00 
4.193253092592e+01 0.000000000000e+00 
4.195425352882e+01 0.000000000000e+00 
4.206698717830e+01 0.000000000000e+00 
4.208736521678e+01 0.000000000000e+00 
4.220009886626e+01 0.000000000000e+00 
4.221914578944e+01 0.000000000000e+00 
4.233187943892e+01 0.000000000000e+00 
4.234960855804e+01 0.000000000000e+00 
4.246234220752e+01 0.000000000000e+00 
4.247876669864e+01 0.000000000000e+00 
4.259150034812e+01 0.000000000000e+00 
4.260663325743e+01 0.000000000000e+00 
4.271936690691e+01 0.000000000000e+00 
4.273322115069e+01 0.000000000000e+00 
4.284595480017e+01 0.000000000000e+00 
4.285854316483e+01 0.000000000000e+00 
4.297127681431e+01 0.000000000000e+00 
4.298261195892e+01 0.000000000000e+00 
4.309534560840e+01 0.000000000000e+00 
4.310544006466e+01 0.000000000000e+00 
4.321817371414e+01 0.000000000000e+00 
4.322703988892e+01 0.000000000000e+00 
4.333977353840e+01 0.000000000000e+00 
4.334742371622e+01 0.000000000000e+00 
4.346015736570e+01 0.000000000000e+00 
4.346660370595e+01 0.000000000000e+00 
4.357933735543e+01 0.000000000000e+00 
4.358459189490e+01 0.000000000000e+00 
4.369732554439e+01 0.000000000000e+00 
4.370140020227e+01 0.000000000000e+00 
4.381413385175e+01 0.000000000000e+00 
4.381704042679e+01 0.000000000000e+00 
4.392977407628e+01 0.000000000000e+00 
4.393152424922e+01 0.000000000000e+00 
4.404425789870e+01 0.000000000000e+00 
4.404486323195e+01 0.000000000000e+00 
4.415706882410e+01 0.000000000000e+00 
4.415759688143e+01 0.000000000000e+00 
4.426815236108e+01 0.000000000000e+00 
4.426980247358e+01 0.000000000000e+00 
4.437812506172e+01 0.000000000000e+00 
4.438088601057e+01 0.000000000000e+00 
4.448699803576e+01 0.000000000000e+00 
4.449085871121e+01 0.000000000000e+00 
4.459478228080e+01 0.000000000000e+00 
4.459973168524e+01 0.000000000000e+00 
4.470148868200e+01 0.000000000000e+00 
4.470751593028e+01 0.000000000000e+00 
4.480712801946e+01 0.000000000000e+00 
4.481422233148e+01 0.000000000000e+00 
4.491171096514e+01 0.000000000000e+00 
4.491986166895e+01 0.000000000000e+00 
4.501524807980e+01 0.000000000000e+00 
4.502444461462e+01 0.000000000000e+00 
4.511774982304e+01 0.000000000000e+00 
4.512798172928e+01 0.000000000000e+00 
4.521922655007e+01 0.000000000000e+00 
4.523048347252e+01 0.000000000000e+00 
4.531968850865e+01 0.000000000000e+00 
4.533196019955e+01 0.000000000000e+00 
4.541914584899e+01 0.000000000000e+00 
4.543242215813e+01 0.000000000000e+00 
4.551760861789e+01 0.000000000000e+00 
4.553187949847e+01 0.000000000000e+00 
4.561508675823e+01 0.000000000000e+00 
4.563034226737e+01 0.000000000000e+00 
4.571159011622e+01 0.000000000000e+00 
4.572782040772e+01 0.000000000000e+00 
4.580712844069e+01 0.000000000000e+00 
4.582432376570e+01 0.000000000000e+00 
4.590171138251e+01 0.000000000000e+00 
4.591986209018e+01 0.000000000000e+00 
4.599534849387e+01 0.000000000000e+00 
4.601444503199e+01 0.000000000000e+00 
4.608804923289e+01 0.000000000000e+00 
4.610808214335e+01 0.000000000000e+00 
4.617982296546e+01 0.000000000000e+00 
4.620078288237e+01 0.000000000000e+00 
4.627067896193e+01 0.000000000000e+00 
4.629255661495e+01 0.000000000000e+00 
4.636062639897e+01 0.000000000000e+00 
4.638341261142e+01 0.000000000000e+00 
4.644967436143e+01 0.000000000000e+00 
4.647336004845e+01 0.000000000000e+00 
4.653783184420e+01 0.000000000000e+00 
4.656240801091e+01 0.000000000000e+00 
4.662510775135e+01 0.000000000000e+00 
4.665056549368e+01 0.000000000000e+00 
4.671151089802e+01 0.000000000000e+00 
4.673784140084e+01 0.000000000000e+00 
4.679705001473e+01 0.000000000000e+00 
4.682424454751e+01 0.000000000000e+00 
4.688173374126e+01 0.000000000000e+00 
4.690978366421e+01 0.000000000000e+00 
4.696557062851e+01 0.000000000000e+00 
4.699446739074e+01 0.000000000000e+00 
4.704856914544e+01 0.000000000000e+00 
4.707830427800e+01 0.000000000000e+00 
4.713073767808e+01 0.000000000000e+00 
4.716130279493e+01 0.000000000000e+00 
4.721208452602e+01 0.000000000000e+00 
4.724347132757e+01 0.000000000000e+00 
4.729261790673e+01 0.000000000000e+00 
4.732481817550e+01 0.000000000000e+00 
4.737234595458e+01 0.000000000000e+00 
4.740535155622e+01 0.000000000000e+00 
4.745127671989e+01 0.000000000000e+00 
4.748507960407e+01 0.000000000000e+00 
4.752941817580e+01 0.000000000000e+00 
4.756401036937e+01 0.000000000000e+00 
4.760677821722e+01 0.000000000000e+00 
4.764215182528e+01 0.000000000000e+00 
4.768336465981e+01 0.000000000000e+00 
4.771951186670e+01 0.000000000000e+00 
4.775918523892e+01 0.000000000000e+00 
4.779609830929e+01 0.000000000000e+00 
4.783424761125e+01 0.000000000000e+00 
4.787191888841e+01 0.000000000000e+00 
4.790855935890e+01 0.000000000000e+00 
4.794698126073e+01 0.000000000000e+00 
4.798212799101e+01 0.000000000000e+00 
4.802129300839e+01 0.000000000000e+00 
4.809486164049e+01 0.000000000000e+00 
 TITLE = "Profiles along polylines"
 VARIABLES = "DIST" "HEAD" 
 ZONE T="TIME=1.797693134862e+308"
1.298212799101e+01 3.352979172665e+01 
1.309486164049e+01 3.352087338389e+01 
1.340496093528e+01 3.352958255204e+01 
1.351769458476e+01 3.352066380917e+01 
1.382356555242e+01 3.352937692164e+01 
1.393629920190e+01 3.352045776934e+01 
1.423798412229e+01 3.352917477091e+01 
1.435071777177e+01 3.352025520018e+01 
1.464825850631e+01 3.352897603660e+01 
1.476099215579e+01 3.352005603879e+01 
1.505443014796e+01 3.352878065673e+01 
1.516716379744e+01 3.351986022351e+01 
1.545654007338e+01 3.352858857053e+01 
1.556927372287e+01 3.351966769393e+01 
1.585462889963e+01 3.352839971846e+01 
1.596736254912e+01 3.351947839087e+01 
1.624873683765e+01 3.352821404215e+01 
1.636147048713e+01 3.351929225633e+01 
1.663890369513e+01 3.352803148440e+01 
1.675163734461e+01 3.351910923347e+01 
1.702516888199e+01 3.352785198913e+01 
1.713790253147e+01 3.351892926658e+01 
1.740757141828e+01 3.352767550137e+01 
1.752030506776e+01 3.351875230106e+01 
1.778614992892e+01 3.352750196722e+01 
1.789888357840e+01 3.351857828340e+01 
1.816094265426e+01 3.352733133384e+01 
1.827367630375e+01 3.351840716112e+01 
1.853198745241e+01 3.352716354942e+01 
1.864472110189e+01 3.351823888278e+01 
1.889932180178e+01 3.352699856316e+01 
1.901205545127e+01 3.351807339795e+01 
1.926298280854e+01 3.352683632522e+01 
1.937571645803e+01 3.351791065717e+01 
1.962300720372e+01 3.352667678674e+01 
1.973574085320e+01 3.351775061194e+01 
1.997943135583e+01 3.352651989980e+01 
2.009216500532e+01 3.351759321470e+01 
2.033229126769e+01 3.352636561739e+01 
2.044502491718e+01 3.351743841878e+01 
2.068162258117e+01 3.352621389339e+01 
2.079435623065e+01 3.351728617842e+01 
2.102746058166e+01 3.352606468258e+01 
2.114019423114e+01 3.351713644875e+01 
2.136984020009e+01 3.352591794057e+01 
2.148257384958e+01 3.351698918571e+01 
2.170879602254e+01 3.352577362384e+01 
2.182152967202e+01 3.351684434610e+01 
2.204436228667e+01 3.352563168967e+01 
2.215709593616e+01 3.351670188753e+01 
2.237657288878e+01 3.352549209614e+01 
2.248930653826e+01 3.351656176839e+01 
2.270546138526e+01 3.352535480213e+01 
2.281819503475e+01 3.351642394788e+01 
2.303106099692e+01 3.352521976727e+01 
2.314379464640e+01 3.351628838592e+01 
2.335340461290e+01 3.352508695198e+01 
2.346613826239e+01 3.351615504320e+01 
2.367252479225e+01 3.352495631737e+01 
2.378525844174e+01 3.351602388115e+01 
2.398845377037e+01 3.352482782530e+01 
2.410118741985e+01 3.351589486187e+01 
2.430122345772e+01 3.352470143834e+01 
2.441395710720e+01 3.351576794820e+01 
2.461086544891e+01 3.352457711973e+01 
2.472359909839e+01 3.351564310364e+01 
2.491741102113e+01 3.352445483339e+01 
2.503014467061e+01 3.351552029237e+01 
2.522089113533e+01 3.352433454393e+01 
2.533362478481e+01 3.351539947922e+01 
2.552133644770e+01 3.352421621659e+01 
2.563407009718e+01 3.351528062964e+01 
2.581877730791e+01 3.352409981723e+01 
2.593151095739e+01 3.351516370975e+01 
2.611324376010e+01 3.352398531237e+01 
2.622597740958e+01 3.351504868625e+01 
2.640476554887e+01 3.352387266911e+01 
2.651749919836e+01 3.351493552645e+01 
2.669337212013e+01 3.352376185517e+01 
2.680610576961e+01 3.351482419827e+01 
2.697909262437e+01 3.352365283885e+01 
2.709182627386e+01 3.351471467018e+01 
2.726195592260e+01 3.352354558902e+01 
2.737468957209e+01 3.351460691124e+01 
2.754199058688e+01 3.352344007511e+01 
2.765472423636e+01 3.351450089104e+01 
2.781922490351e+01 3.352333626713e+01 
2.793195855300e+01 3.351439657975e+01 
2.809368687873e+01 3.352323413559e+01 
2.820642052821e+01 3.351429394804e+01 
2.836540423646e+01 3.352313365158e+01 
2.847813788594e+01 3.351419296712e+01 
2.863440442137e+01 3.352303478666e+01 
2.874713807086e+01 3.351409360871e+01 
2.890071460441e+01 3.352293751295e+01 
2.901344825389e+01 3.351399584504e+01 
2.916436168302e+01 3.352284180304e+01 
2.927709533250e+01 3.351389964883e+01 
2.942537228927e+01 3.352274763002e+01 
2.953810593875e+01 3.351380499329e+01 
2.968377278985e+01 3.352265496747e+01 
2.979650643934e+01 3.351371185208e+01 
2.993958928629e+01 3.352256378943e+01 
3.005232293577e+01 3.351362019937e+01 
3.019284761748e+01 3.352247407041e+01 
3.030558126696e+01 3.351353000975e+01 
3.044357336507e+01 3.352238578539e+01 
3.055630701455e+01 3.351344125828e+01 
3.069179185583e+01 3.352229890977e+01 
3.080452550532e+01 3.351335392044e+01 
3.093752816167e+01 3.352221341941e+01 
3.105026181115e+01 3.351326797218e+01 
3.118080710460e+01 3.352212929059e+01 
3.129354075409e+01 3.351318338984e+01 
3.142165325921e+01 3.352204650002e+01 
3.153438690869e+01 3.351310015018e+01 
3.166009095230e+01 3.352196502483e+01 
3.177282460178e+01 3.351301823039e+01 
3.189614426791e+01 3.352188484254e+01 
3.200887791739e+01 3.351293760805e+01 
3.212983704945e+01 3.352180593107e+01 
3.224257069894e+01 3.351285826112e+01 
3.236119290202e+01 3.352172826875e+01 
3.247392655151e+01 3.351278016798e+01 
3.259023519705e+01 3.352165183429e+01 
3.270296884653e+01 3.351270330736e+01 
3.281698706920e+01 3.352157660677e+01 
3.292972071869e+01 3.351262765838e+01 
3.304147142372e+01 3.352150256564e+01 
3.315420507320e+01 3.351255320052e+01 
3.326371093571e+01 3.352142969072e+01 
3.337644458520e+01 3.351247991362e+01 
3.348372805224e+01 3.352135796218e+01 
3.359646170172e+01 3.351240777787e+01 
3.370154499674e+01 3.352128736057e+01 
3.381427864622e+01 3.351233677383e+01 
3.391718377099e+01 3.352121786674e+01 
3.402991742047e+01 3.351226688237e+01 
3.413066615685e+01 3.352114946191e+01 
3.424339980633e+01 3.351219808470e+01 
3.434201371807e+01 3.352108212763e+01 
3.445474736756e+01 3.351213036239e+01 
3.455124780467e+01 3.352101584576e+01 
3.466398145416e+01 3.351206369729e+01 
3.475838955195e+01 3.352095059849e+01 
3.487112320144e+01 3.351199807160e+01 
3.496345988219e+01 3.352088636833e+01 
3.507619353168e+01 3.351193346781e+01 
3.516647950888e+01 3.352082313809e+01 
3.527921315836e+01 3.351186986874e+01 
3.536746893827e+01 3.352076089089e+01 
3.548020258776e+01 3.351180725748e+01 
3.556644847354e+01 3.352069961015e+01 
3.567918212302e+01 3.351174561744e+01 
3.576343821357e+01 3.352063927957e+01 
3.587617186305e+01 3.351168493231e+01 
3.595845805709e+01 3.352057988315e+01 
3.607119170658e+01 3.351162518607e+01 
3.615152770407e+01 3.352052140517e+01 
3.626426135355e+01 3.351156636298e+01 
3.634266665449e+01 3.352046383018e+01 
3.645540030397e+01 3.351150844756e+01 
3.653189421467e+01 3.352040714300e+01 
3.664462786416e+01 3.351145142462e+01 
3.671922949892e+01 3.352035132875e+01 
3.683196314841e+01 3.351139527923e+01 
3.690469143052e+01 3.352029637276e+01 
3.701742508000e+01 3.351133999671e+01 
3.708829874299e+01 3.352024226066e+01 
3.720103239247e+01 3.351128556266e+01 
3.727006998126e+01 3.352018897831e+01 
3.738280363074e+01 3.351123196290e+01 
3.745002350545e+01 3.352013651184e+01 
3.756275715493e+01 3.351117918352e+01 
3.762817749450e+01 3.352008484760e+01 
3.774091114399e+01 3.351112721086e+01 
3.780454994467e+01 3.352003397219e+01 
3.791728359415e+01 3.351107603146e+01 
3.797915867047e+01 3.351998387245e+01 
3.809189231996e+01 3.351102563214e+01 
3.815202130839e+01 3.351993453545e+01 
3.826475495787e+01 3.351097599992e+01 
3.832315532035e+01 3.351988594848e+01 
3.843588896983e+01 3.351092712206e+01 
3.849257799202e+01 3.351983809906e+01 
3.860531164150e+01 3.351087898604e+01 
3.866030643635e+01 3.351979097493e+01 
3.877304008583e+01 3.351083157955e+01 
3.882635759696e+01 3.351974456404e+01 
3.893909124645e+01 3.351078489050e+01 
3.899074824639e+01 3.351969885456e+01 
3.910348189587e+01 3.351073890703e+01 
3.915349498941e+01 3.351965383485e+01 
3.926622863890e+01 3.351069361745e+01 
3.931461426384e+01 3.351960949350e+01 
3.942734791333e+01 3.351064901030e+01 
3.947412234646e+01 3.351956581928e+01 
3.958685599594e+01 3.351060507431e+01 
3.963203534835e+01 3.351952280115e+01 
3.974476899784e+01 3.351056179841e+01 
3.978836921833e+01 3.351948042830e+01 
3.990110286781e+01 3.351051917172e+01 
3.994313975124e+01 3.351943869007e+01 
4.005587340072e+01 3.351047718355e+01 
4.009636258071e+01 3.351939757601e+01 
4.020909623019e+01 3.351043582340e+01 
4.024805318235e+01 3.351935707583e+01 
4.036078683184e+01 3.351039508095e+01 
4.039822687688e+01 3.351931717946e+01 
4.051096052636e+01 3.351035494606e+01 
4.054689883319e+01 3.351927787696e+01 
4.065963248268e+01 3.351031540875e+01 
4.069408406881e+01 3.351923915859e+01 
4.080681771830e+01 3.351027645925e+01 
4.083979745293e+01 3.351920101478e+01 
4.095253110241e+01 3.351023808792e+01 
4.098405370410e+01 3.351916343612e+01 
4.109678735359e+01 3.351020028532e+01 
4.112686739072e+01 3.351912641336e+01 
4.123960104020e+01 3.351016304216e+01 
4.126825294174e+01 3.351908993743e+01 
4.138098659123e+01 3.351012634930e+01 
4.140822463909e+01 3.351905399939e+01 
4.152095828857e+01 3.351009019777e+01 
4.154679661801e+01 3.351901859049e+01 
4.165953026749e+01 3.351005457877e+01 
4.168398287774e+01 3.351898370210e+01 
4.179671652722e+01 3.351001948363e+01 
4.181979727644e+01 3.351894932576e+01 
4.193253092592e+01 3.350998490383e+01 
4.195425352882e+01 3.351891545315e+01 
4.206698717830e+01 3.350995083103e+01 
4.208736521678e+01 3.351888207610e+01 
4.220009886626e+01 3.350991725699e+01 
4.221914578944e+01 3.351884918658e+01 
4.233187943892e+01 3.350988417364e+01 
4.234960855804e+01 3.351881677670e+01 
4.246234220752e+01 3.350985157304e+01 
4.247876669864e+01 3.351878483869e+01 
4.259150034812e+01 3.350981944739e+01 
4.260663325743e+01 3.351875336495e+01 
4.271936690691e+01 3.350978778904e+01 
4.273322115069e+01 3.351872234798e+01 
4.284595480017e+01 3.350975659044e+01 
4.285854316483e+01 3.351869178043e+01 
4.297127681431e+01 3.350972584420e+01 
4.298261195892e+01 3.351866165506e+01 
4.309534560840e+01 3.350969554304e+01 
4.310544006466e+01 3.351863196477e+01 
4.321817371414e+01 3.350966567981e+01 
4.322703988892e+01 3.351860270257e+01 
4.333977353840e+01 3.350963624749e+01 
4.334742371622e+01 3.351857386162e+01 
4.346015736570e+01 3.350960723918e+01 
4.346660370595e+01 3.351854543515e+01 
4.357933735543e+01 3.350957864808e+01 
4.358459189490e+01 3.351851741656e+01 
4.369732554439e+01 3.350955046754e+01 
4.370140020227e+01 3.351848979931e+01 
4.381413385175e+01 3.350952269099e+01 
4.381704042679e+01 3.351846257703e+01 
4.392977407628e+01 3.350949531201e+01 
4.393152424922e+01 3.351843574341e+01 
4.404425789870e+01 3.350946832425e+01 
4.404486323195e+01 3.351840929227e+01 
4.415706882410e+01 3.351838321755e+01 
4.415759688143e+01 3.350944172150e+01 
4.426815236108e+01 3.351835751327e+01 
4.426980247358e+01 3.350941549764e+01 
4.437812506172e+01 3.351833217356e+01 
4.438088601057e+01 3.350938964667e+01 
4.448699803576e+01 3.351830719266e+01 
4.449085871121e+01 3.350936416267e+01 
4.459478228080e+01 3.351828256490e+01 
4.459973168524e+01 3.350933903985e+01 
4.470148868200e+01 3.351825828470e+01 
4.470751593028e+01 3.350931427250e+01 
4.480712801946e+01 3.351823434660e+01 
4.481422233148e+01 3.350928985500e+01 
4.491171096514e+01 3.351821074522e+01 
4.491986166895e+01 3.350926578186e+01 
4.501524807980e+01 3.351818747525e+01 
4.502444461462e+01 3.350924204764e+01 
4.511774982304e+01 3.351816453152e+01 
4.512798172928e+01 3.350921864703e+01 
4.521922655007e+01 3.351814190889e+01 
4.523048347252e+01 3.350919557480e+01 
4.531968850865e+01 3.351811960236e+01 
4.533196019955e+01 3.350917282579e+01 
4.541914584899e+01 3.351809760699e+01 
4.543242215813e+01 3.350915039494e+01 
4.551760861789e+01 3.351807591792e+01 
4.553187949847e+01 3.350912827730e+01 
4.561508675823e+01 3.351805453038e+01 
4.563034226737e+01 3.350910646797e+01 
4.571159011622e+01 3.351803343968e+01 
4.572782040772e+01 3.350908496214e+01 
4.580712844069e+01 3.351801264122e+01 
4.582432376570e+01 3.350906375511e+01 
4.590171138251e+01 3.351799213046e+01 
4.591986209018e+01 3.350904284221e+01 
4.599534849387e+01 3.351797190295e+01 
4.601444503199e+01 3.350902221890e+01 
4.608804923289e+01 3.351795195430e+01 
4.610808214335e+01 3.350900188068e+01 
4.617982296546e+01 3.351793228022e+01 
4.620078288237e+01 3.350898182315e+01 
4.627067896193e+01 3.351791287647e+01 
4.629255661495e+01 3.350896204197e+01 
4.636062639897e+01 3.351789373890e+01 
4.638341261142e+01 3.350894253288e+01 
4.644967436143e+01 3.351787486340e+01 
4.647336004845e+01 3.350892329168e+01 
4.653783184420e+01 3.351785624597e+01 
4.656240801091e+01 3.350890431427e+01 
4.662510775135e+01 3.351783788264e+01 
4.665056549368e+01 3.350888559658e+01 
4.671151089802e+01 3.351781976953e+01 
4.673784140084e+01 3.350886713464e+01 
4.679705001473e+01 3.351780190282e+01 
4.682424454751e+01 3.350884892454e+01 
4.688173374126e+01 3.351778427875e+01 
4.690978366421e+01 3.350883096241e+01 
4.696557062851e+01 3.351776689362e+01 
4.699446739074e+01 3.350881324449e+01 
4.704856914544e+01 3.351774974381e+01 
4.707830427800e+01 3.350879576704e+01 
4.713073767808e+01 3.351773282574e+01 
4.716130279493e+01 3.350877852641e+01 
4.721208452602e+01 3.351771613590e+01 
4.724347132757e+01 3.350876151900e+01 
4.729261790673e+01 3.351769967083e+01 
4.732481817550e+01 3.350874474128e+01 
4.737234595458e+01 3.351768342714e+01 
4.740535155622e+01 3.350872818976e+01 
4.745127671989e+01 3.351766740150e+01 
4.748507960407e+01 3.350871186102e+01 
4.752941817580e+01 3.351765159061e+01 
4.756401036937e+01 3.350869575171e+01 
4.760677821722e+01 3.351763599125e+01 
4.764215182528e+01 3.350867985852e+01 
4.768336465981e+01 3.351762060024e+01 
4.771951186670e+01 3.350866417818e+01 
4.775918523892e+01 3.351760541445e+01 
4.779609830929e+01 3.350864870751e+01 
4.783424761125e+01 3.351759043083e+01 
4.787191888841e+01 3.350863344336e+01 
4.790855935890e+01 3.351757564635e+01 
4.794698126073e+01 3.350861838263e+01 
4.798212799101e+01 3.351756105805e+01 
4.802129300839e+01 3.350860352229e+01 
4.809486164049e+01 3.350858885935e+01 
