 TITLE = "Profiles along polylines"
 VARIABLES = "DIST" "HEAD" 
 ZONE T="TIME=0.000000000000e+00"
7.074203674111e+01 0.000000000000e+00 
7.116486968538e+01 0.000000000000e+00 
7.158347430252e+01 0.000000000000e+00 
7.199789287239e+01 0.000000000000e+00 
7.240816725641e+01 0.000000000000e+00 
7.281433889807e+01 0.000000000000e+00 
7.321644882349e+01 0.000000000000e+00 
7.361453764974e+01 0.000000000000e+00 
7.400864558775e+01 0.000000000000e+00 
7.439881244524e+01 0.000000000000e+00 
7.478507763210e+01 0.000000000000e+00 
7.516748016839e+01 0.000000000000e+00 
7.554605867903e+01 0.000000000000e+00 
7.592085140438e+01 0.000000000000e+00 
7.629189620252e+01 0.000000000000e+00 
7.665923055190e+01 0.000000000000e+00 
7.702289155866e+01 0.000000000000e+00 
7.738291595384e+01 0.000000000000e+00 
7.773934010595e+01 0.000000000000e+00 
7.809220001781e+01 0.000000000000e+00 
7.844153133128e+01 0.000000000000e+00 
7.878736933177e+01 0.000000000000e+00 
7.912974895021e+01 0.000000000000e+00 
7.946870477266e+01 0.000000000000e+00 
7.980427103679e+01 0.000000000000e+00 
8.013648163890e+01 0.000000000000e+00 
8.046537013538e+01 0.000000000000e+00 
8.079096974704e+01 0.000000000000e+00 
8.111331336303e+01 0.000000000000e+00 
8.143243354238e+01 0.000000000000e+00 
8.174836252049e+01 0.000000000000e+00 
8.206113220784e+01 0.000000000000e+00 
8.237077419903e+01 0.000000000000e+00 
8.267731977125e+01 0.000000000000e+00 
8.298079988545e+01 0.000000000000e+00 
8.328124519782e+01 0.000000000000e+00 
8.357868605804e+01 0.000000000000e+00 
8.387315251022e+01 0.000000000000e+00 
8.416467429900e+01 0.000000000000e+00 
8.445328087026e+01 0.000000000000e+00 
8.473900137450e+01 0.000000000000e+00 
8.502186467273e+01 0.000000000000e+00 
8.530189933701e+01 0.000000000000e+00 
8.557913365364e+01 0.000000000000e+00 
8.585359562886e+01 0.000000000000e+00 
8.612531298659e+01 0.000000000000e+00 
8.639431317151e+01 0.000000000000e+00 
8.666062335454e+01 0.000000000000e+00 
8.692427043315e+01 0.000000000000e+00 
8.718528103940e+01 0.000000000000e+00 
8.744368153999e+01 0.000000000000e+00 
8.769949803642e+01 0.000000000000e+00 
8.795275636761e+01 0.000000000000e+00 
8.820348211520e+01 0.000000000000e+00 
8.845170060597e+01 0.000000000000e+00 
8.869743691180e+01 0.000000000000e+00 
8.894071585474e+01 0.000000000000e+00 
8.918156200934e+01 0.000000000000e+00 
8.941999970243e+01 0.000000000000e+00 
8.965605301804e+01 0.000000000000e+00 
8.988974579958e+01 0.000000000000e+00 
9.012110165215e+01 0.000000000000e+00 
9.035014394718e+01 0.000000000000e+00 
9.057689581933e+01 0.000000000000e+00 
9.080138017385e+01 0.000000000000e+00 
9.102361968584e+01 0.000000000000e+00 
9.124363680236e+01 0.000000000000e+00 
9.146145374687e+01 0.000000000000e+00 
9.167709252112e+01 0.000000000000e+00 
9.189057490697e+01 0.000000000000e+00 
9.210192246820e+01 0.000000000000e+00 
9.231115655480e+01 0.000000000000e+00 
9.251829830208e+01 0.000000000000e+00 
9.272336863232e+01 0.000000000000e+00 
9.292638825900e+01 0.000000000000e+00 
9.312737768840e+01 0.000000000000e+00 
9.332635722366e+01 0.000000000000e+00 
9.352334696369e+01 0.000000000000e+00 
9.371836680721e+01 0.000000000000e+00 
9.391143645419e+01 0.000000000000e+00 
9.410257540461e+01 0.000000000000e+00 
9.429180296480e+01 0.000000000000e+00 
9.447913824904e+01 0.000000000000e+00 
9.466460018064e+01 0.000000000000e+00 
9.484820749311e+01 0.000000000000e+00 
9.502997873138e+01 0.000000000000e+00 
9.520993225557e+01 0.000000000000e+00 
9.538808624462e+01 0.000000000000e+00 
9.556445869479e+01 0.000000000000e+00 
9.573906742059e+01 0.000000000000e+00 
9.591193005851e+01 0.000000000000e+00 
9.608306407047e+01 0.000000000000e+00 
9.625248674213e+01 0.000000000000e+00 
9.642021518646e+01 0.000000000000e+00 
9.658626634708e+01 0.000000000000e+00 
9.675065699650e+01 0.000000000000e+00 
9.691340373953e+01 0.000000000000e+00 
9.707452301396e+01 0.000000000000e+00 
9.723403109658e+01 0.000000000000e+00 
9.739194409847e+01 0.000000000000e+00 
9.754827796844e+01 0.000000000000e+00 
9.770304850135e+01 0.000000000000e+00 
9.785627133082e+01 0.000000000000e+00 
9.800796193247e+01 0.000000000000e+00 
9.815813562699e+01 0.000000000000e+00 
9.830680758331e+01 0.000000000000e+00 
9.845399281892e+01 0.000000000000e+00 
9.859970620304e+01 0.000000000000e+00 
9.874396245422e+01 0.000000000000e+00 
9.888677614083e+01 0.000000000000e+00 
9.902816169185e+01 0.000000000000e+00 
9.916813338920e+01 0.000000000000e+00 
9.930670536812e+01 0.000000000000e+00 
9.944389162785e+01 0.000000000000e+00 
9.957970602655e+01 0.000000000000e+00 
9.971416227893e+01 0.000000000000e+00 
9.984727396689e+01 0.000000000000e+00 
9.997905453955e+01 0.000000000000e+00 
1.001095173081e+02 0.000000000000e+00 
1.002386754487e+02 0.000000000000e+00 
1.003665420075e+02 0.000000000000e+00 
1.004931299008e+02 0.000000000000e+00 
1.006184519149e+02 0.000000000000e+00 
1.007425207090e+02 0.000000000000e+00 
1.008653488148e+02 0.000000000000e+00 
1.009869486390e+02 0.000000000000e+00 
1.011073324663e+02 0.000000000000e+00 
1.012265124561e+02 0.000000000000e+00 
1.013445006450e+02 0.000000000000e+00 
1.014613089524e+02 0.000000000000e+00 
1.015769491769e+02 0.000000000000e+00 
1.016914329993e+02 0.000000000000e+00 
1.018047719821e+02 0.000000000000e+00 
1.019169775742e+02 0.000000000000e+00 
 TITLE = "Profiles along polylines"
 VARIABLES = "DIST" "HEAD" 
 ZONE T="TIME=1.797693134862e+308"
7.074203674111e+01 3.142446301337e+01 
7.116486968538e+01 3.142373062443e+01 
7.158347430252e+01 3.142300641436e+01 
7.199789287239e+01 3.142229029804e+01 
7.240816725641e+01 3.142158219136e+01 
7.281433889807e+01 3.142088201116e+01 
7.321644882349e+01 3.142018967517e+01 
7.361453764974e+01 3.141950510201e+01 
7.400864558775e+01 3.141882821107e+01 
7.439881244524e+01 3.141815892254e+01 
7.478507763210e+01 3.141749715734e+01 
7.516748016839e+01 3.141684283709e+01 
7.554605867903e+01 3.141619588408e+01 
7.592085140438e+01 3.141555622127e+01 
7.629189620252e+01 3.141492377224e+01 
7.665923055190e+01 3.141429846119e+01 
7.702289155866e+01 3.141368021291e+01 
7.738291595384e+01 3.141306895279e+01 
7.773934010595e+01 3.141246460676e+01 
7.809220001781e+01 3.141186710134e+01 
7.844153133128e+01 3.141127636359e+01 
7.878736933177e+01 3.141069232113e+01 
7.912974895021e+01 3.141011490209e+01 
7.946870477266e+01 3.140954403517e+01 
7.980427103679e+01 3.140897964959e+01 
8.013648163890e+01 3.140842167508e+01 
8.046537013538e+01 3.140787004194e+01 
8.079096974704e+01 3.140732468095e+01 
8.111331336303e+01 3.140678552345e+01 
8.143243354238e+01 3.140625250131e+01 
8.174836252049e+01 3.140572554690e+01 
8.206113220784e+01 3.140520459314e+01 
8.237077419903e+01 3.140468957347e+01 
8.267731977125e+01 3.140418042187e+01 
8.298079988545e+01 3.140367707284e+01 
8.328124519782e+01 3.140317946144e+01 
8.357868605804e+01 3.140268752323e+01 
8.387315251022e+01 3.140220119433e+01 
8.416467429900e+01 3.140172041140e+01 
8.445328087026e+01 3.140124511162e+01 
8.473900137450e+01 3.140077523276e+01 
8.502186467273e+01 3.140031071309e+01 
8.530189933701e+01 3.139985149144e+01 
8.557913365364e+01 3.139939750720e+01 
8.585359562886e+01 3.139894870029e+01 
8.612531298659e+01 3.139850501119e+01 
8.639431317151e+01 3.139806638093e+01 
8.666062335454e+01 3.139763275110e+01 
8.692427043315e+01 3.139720406384e+01 
8.718528103940e+01 3.139678026185e+01 
8.744368153999e+01 3.139636128837e+01 
8.769949803642e+01 3.139594708719e+01 
8.795275636761e+01 3.139553760267e+01 
8.820348211520e+01 3.139513277973e+01 
8.845170060597e+01 3.139473256383e+01 
8.869743691180e+01 3.139433690098e+01 
8.894071585474e+01 3.139394573777e+01 
8.918156200934e+01 3.139355902130e+01 
8.941999970243e+01 3.139317669925e+01 
8.965605301804e+01 3.139279871986e+01 
8.988974579958e+01 3.139242503189e+01 
9.012110165215e+01 3.139205558467e+01 
9.035014394718e+01 3.139169032805e+01 
9.057689581933e+01 3.139132921245e+01 
9.080138017385e+01 3.139097218881e+01 
9.102361968584e+01 3.139061920863e+01 
9.124363680236e+01 3.139027022392e+01 
9.146145374687e+01 3.138992518725e+01 
9.167709252112e+01 3.138958405171e+01 
9.189057490697e+01 3.138924677093e+01 
9.210192246820e+01 3.138891329903e+01 
9.231115655480e+01 3.138858359070e+01 
9.251829830208e+01 3.138825760112e+01 
9.272336863232e+01 3.138793528599e+01 
9.292638825900e+01 3.138761660154e+01 
9.312737768840e+01 3.138730150449e+01 
9.332635722366e+01 3.138698995208e+01 
9.352334696369e+01 3.138668190204e+01 
9.371836680721e+01 3.138637731260e+01 
9.391143645419e+01 3.138607614249e+01 
9.410257540461e+01 3.138577835094e+01 
9.429180296480e+01 3.138548389766e+01 
9.447913824904e+01 3.138519274283e+01 
9.466460018064e+01 3.138490484713e+01 
9.484820749311e+01 3.138462017170e+01 
9.502997873138e+01 3.138433867815e+01 
9.520993225557e+01 3.138406032857e+01 
9.538808624462e+01 3.138378508550e+01 
9.556445869479e+01 3.138351291194e+01 
9.573906742059e+01 3.138324377133e+01 
9.591193005851e+01 3.138297762760e+01 
9.608306407047e+01 3.138271444507e+01 
9.625248674213e+01 3.138245418854e+01 
9.642021518646e+01 3.138219682323e+01 
9.658626634708e+01 3.138194231479e+01 
9.675065699650e+01 3.138169062931e+01 
9.691340373953e+01 3.138144173327e+01 
9.707452301396e+01 3.138119559360e+01 
9.723403109658e+01 3.138095217764e+01 
9.739194409847e+01 3.138071145311e+01 
9.754827796844e+01 3.138047338816e+01 
9.770304850135e+01 3.138023795133e+01 
9.785627133082e+01 3.138000511156e+01 
9.800796193247e+01 3.137977483816e+01 
9.815813562699e+01 3.137954710086e+01 
9.830680758331e+01 3.137932186974e+01 
9.845399281892e+01 3.137909911527e+01 
9.859970620304e+01 3.137887880830e+01 
9.874396245422e+01 3.137866092002e+01 
9.888677614083e+01 3.137844542200e+01 
9.902816169185e+01 3.137823228619e+01 
9.916813338920e+01 3.137802148484e+01 
9.930670536812e+01 3.137781299061e+01 
9.944389162785e+01 3.137760677647e+01 
9.957970602655e+01 3.137740281573e+01 
9.971416227893e+01 3.137720108205e+01 
9.984727396689e+01 3.137700154943e+01 
9.997905453955e+01 3.137680419218e+01 
1.001095173081e+02 3.137660898493e+01 
1.002386754487e+02 3.137641590265e+01 
1.003665420075e+02 3.137622492062e+01 
1.004931299008e+02 3.137603601442e+01 
1.006184519149e+02 3.137584915996e+01 
1.007425207090e+02 3.137566433343e+01 
1.008653488148e+02 3.137548151133e+01 
1.009869486390e+02 3.137530067046e+01 
1.011073324663e+02 3.137512178791e+01 
1.012265124561e+02 3.137494484106e+01 
1.013445006450e+02 3.137476980756e+01 
1.014613089524e+02 3.137459666536e+01 
1.015769491769e+02 3.137442539268e+01 
1.016914329993e+02 3.137425596801e+01 
1.018047719821e+02 3.137408837011e+01 
1.019169775742e+02 3.137392257802e+01 
