 TITLE = "Profiles along polylines"
 VARIABLES = "DIST" "HEAD" 
 ZONE T="TIME=0.000000000000e+00"
1.242353443932e+01 0.000000000000e+00 
1.253457991829e+01 0.000000000000e+00 
1.284636738358e+01 0.000000000000e+00 
1.295741286255e+01 0.000000000000e+00 
1.326497200072e+01 0.000000000000e+00 
1.337601747969e+01 0.000000000000e+00 
1.367939057059e+01 0.000000000000e+00 
1.379043604956e+01 0.000000000000e+00 
1.408966495461e+01 0.000000000000e+00 
1.420071043358e+01 0.000000000000e+00 
1.449583659627e+01 0.000000000000e+00 
1.460688207524e+01 0.000000000000e+00 
1.489794652169e+01 0.000000000000e+00 
1.500899200066e+01 0.000000000000e+00 
1.529603534794e+01 0.000000000000e+00 
1.540708082691e+01 0.000000000000e+00 
1.569014328595e+01 0.000000000000e+00 
1.580118876492e+01 0.000000000000e+00 
1.608031014343e+01 0.000000000000e+00 
1.619135562240e+01 0.000000000000e+00 
1.646657533030e+01 0.000000000000e+00 
1.657762080926e+01 0.000000000000e+00 
1.684897786659e+01 0.000000000000e+00 
1.696002334556e+01 0.000000000000e+00 
1.722755637723e+01 0.000000000000e+00 
1.733860185619e+01 0.000000000000e+00 
1.760234910257e+01 0.000000000000e+00 
1.771339458154e+01 0.000000000000e+00 
1.797339390072e+01 0.000000000000e+00 
1.808443937969e+01 0.000000000000e+00 
1.834072825009e+01 0.000000000000e+00 
1.845177372906e+01 0.000000000000e+00 
1.870438925685e+01 0.000000000000e+00 
1.881543473582e+01 0.000000000000e+00 
1.906441365203e+01 0.000000000000e+00 
1.917545913100e+01 0.000000000000e+00 
1.942083780414e+01 0.000000000000e+00 
1.953188328311e+01 0.000000000000e+00 
1.977369771600e+01 0.000000000000e+00 
1.988474319497e+01 0.000000000000e+00 
2.012302902947e+01 0.000000000000e+00 
2.023407450844e+01 0.000000000000e+00 
2.046886702997e+01 0.000000000000e+00 
2.057991250893e+01 0.000000000000e+00 
2.081124664840e+01 0.000000000000e+00 
2.092229212737e+01 0.000000000000e+00 
2.115020247085e+01 0.000000000000e+00 
2.126124794982e+01 0.000000000000e+00 
2.148576873498e+01 0.000000000000e+00 
2.159681421395e+01 0.000000000000e+00 
2.181797933709e+01 0.000000000000e+00 
2.192902481606e+01 0.000000000000e+00 
2.214686783357e+01 0.000000000000e+00 
2.225791331254e+01 0.000000000000e+00 
2.247246744523e+01 0.000000000000e+00 
2.258351292419e+01 0.000000000000e+00 
2.279481106121e+01 0.000000000000e+00 
2.290585654018e+01 0.000000000000e+00 
2.311393124056e+01 0.000000000000e+00 
2.322497671953e+01 0.000000000000e+00 
2.342986021868e+01 0.000000000000e+00 
2.354090569765e+01 0.000000000000e+00 
2.374262990603e+01 0.000000000000e+00 
2.385367538500e+01 0.000000000000e+00 
2.405227189722e+01 0.000000000000e+00 
2.416331737619e+01 0.000000000000e+00 
2.435881746944e+01 0.000000000000e+00 
2.446986294840e+01 0.000000000000e+00 
2.466229758364e+01 0.000000000000e+00 
2.477334306260e+01 0.000000000000e+00 
2.496274289600e+01 0.000000000000e+00 
2.507378837497e+01 0.000000000000e+00 
2.526018375622e+01 0.000000000000e+00 
2.537122923519e+01 0.000000000000e+00 
2.555465020840e+01 0.000000000000e+00 
2.566569568737e+01 0.000000000000e+00 
2.584617199718e+01 0.000000000000e+00 
2.595721747615e+01 0.000000000000e+00 
2.613477856844e+01 0.000000000000e+00 
2.624582404741e+01 0.000000000000e+00 
2.642049907268e+01 0.000000000000e+00 
2.653154455165e+01 0.000000000000e+00 
2.670336237091e+01 0.000000000000e+00 
2.681440784988e+01 0.000000000000e+00 
2.698339703519e+01 0.000000000000e+00 
2.709444251416e+01 0.000000000000e+00 
2.726063135182e+01 0.000000000000e+00 
2.737167683079e+01 0.000000000000e+00 
2.753509332704e+01 0.000000000000e+00 
2.764613880601e+01 0.000000000000e+00 
2.780681068477e+01 0.000000000000e+00 
2.791785616374e+01 0.000000000000e+00 
2.807581086968e+01 0.000000000000e+00 
2.818685634865e+01 0.000000000000e+00 
2.834212105272e+01 0.000000000000e+00 
2.845316653168e+01 0.000000000000e+00 
2.860576813132e+01 0.000000000000e+00 
2.871681361029e+01 0.000000000000e+00 
2.886677873757e+01 0.000000000000e+00 
2.897782421654e+01 0.000000000000e+00 
2.912517923816e+01 0.000000000000e+00 
2.923622471713e+01 0.000000000000e+00 
2.938099573459e+01 0.000000000000e+00 
2.949204121356e+01 0.000000000000e+00 
2.963425406579e+01 0.000000000000e+00 
2.974529954476e+01 0.000000000000e+00 
2.988497981338e+01 0.000000000000e+00 
2.999602529234e+01 0.000000000000e+00 
3.013319830414e+01 0.000000000000e+00 
3.024424378311e+01 0.000000000000e+00 
3.037893460998e+01 0.000000000000e+00 
3.048998008895e+01 0.000000000000e+00 
3.062221355291e+01 0.000000000000e+00 
3.073325903188e+01 0.000000000000e+00 
3.086305970752e+01 0.000000000000e+00 
3.097410518649e+01 0.000000000000e+00 
3.110149740060e+01 0.000000000000e+00 
3.121254287957e+01 0.000000000000e+00 
3.133755071621e+01 0.000000000000e+00 
3.144859619518e+01 0.000000000000e+00 
3.157124349776e+01 0.000000000000e+00 
3.168228897673e+01 0.000000000000e+00 
3.180259935033e+01 0.000000000000e+00 
3.191364482930e+01 0.000000000000e+00 
3.203164164536e+01 0.000000000000e+00 
3.214268712432e+01 0.000000000000e+00 
3.225839351751e+01 0.000000000000e+00 
3.236943899648e+01 0.000000000000e+00 
3.248287787202e+01 0.000000000000e+00 
3.259392335099e+01 0.000000000000e+00 
3.270511738402e+01 0.000000000000e+00 
3.281616286299e+01 0.000000000000e+00 
3.292513450054e+01 0.000000000000e+00 
3.303617997951e+01 0.000000000000e+00 
3.314295144505e+01 0.000000000000e+00 
3.325399692401e+01 0.000000000000e+00 
3.335859021930e+01 0.000000000000e+00 
3.346963569827e+01 0.000000000000e+00 
3.357207260515e+01 0.000000000000e+00 
3.368311808412e+01 0.000000000000e+00 
3.378342016638e+01 0.000000000000e+00 
3.389446564535e+01 0.000000000000e+00 
3.399265425298e+01 0.000000000000e+00 
3.410369973195e+01 0.000000000000e+00 
3.419979600026e+01 0.000000000000e+00 
3.431084147923e+01 0.000000000000e+00 
3.440486633050e+01 0.000000000000e+00 
3.451591180947e+01 0.000000000000e+00 
3.460788595719e+01 0.000000000000e+00 
3.471893143616e+01 0.000000000000e+00 
3.480887538658e+01 0.000000000000e+00 
3.491992086555e+01 0.000000000000e+00 
3.500785492184e+01 0.000000000000e+00 
3.511890040081e+01 0.000000000000e+00 
3.520484466187e+01 0.000000000000e+00 
3.531589014084e+01 0.000000000000e+00 
3.539986450540e+01 0.000000000000e+00 
3.551090998437e+01 0.000000000000e+00 
3.559293415238e+01 0.000000000000e+00 
3.570397963134e+01 0.000000000000e+00 
3.578407310280e+01 0.000000000000e+00 
3.589511858177e+01 0.000000000000e+00 
3.597330066298e+01 0.000000000000e+00 
3.608434614195e+01 0.000000000000e+00 
3.616063594723e+01 0.000000000000e+00 
3.627168142620e+01 0.000000000000e+00 
3.634609787883e+01 0.000000000000e+00 
3.645714335780e+01 0.000000000000e+00 
3.652970519130e+01 0.000000000000e+00 
3.664075067026e+01 0.000000000000e+00 
3.671147642957e+01 0.000000000000e+00 
3.682252190854e+01 0.000000000000e+00 
3.689142995375e+01 0.000000000000e+00 
3.700247543272e+01 0.000000000000e+00 
3.706958394281e+01 0.000000000000e+00 
3.718062942178e+01 0.000000000000e+00 
3.724595639297e+01 0.000000000000e+00 
3.735700187194e+01 0.000000000000e+00 
3.742056511878e+01 0.000000000000e+00 
3.753161059775e+01 0.000000000000e+00 
3.759342775670e+01 0.000000000000e+00 
3.770447323566e+01 0.000000000000e+00 
3.776456176866e+01 0.000000000000e+00 
3.787560724762e+01 0.000000000000e+00 
3.793398444032e+01 0.000000000000e+00 
3.804502991929e+01 0.000000000000e+00 
3.810171288465e+01 0.000000000000e+00 
3.821275836362e+01 0.000000000000e+00 
3.826776404527e+01 0.000000000000e+00 
3.837880952424e+01 0.000000000000e+00 
3.843215469469e+01 0.000000000000e+00 
3.854320017366e+01 0.000000000000e+00 
3.859490143772e+01 0.000000000000e+00 
3.870594691669e+01 0.000000000000e+00 
3.875602071215e+01 0.000000000000e+00 
3.886706619112e+01 0.000000000000e+00 
3.891552879477e+01 0.000000000000e+00 
3.902657427374e+01 0.000000000000e+00 
3.907344179666e+01 0.000000000000e+00 
3.918448727563e+01 0.000000000000e+00 
3.922977566664e+01 0.000000000000e+00 
3.934082114560e+01 0.000000000000e+00 
3.938454619954e+01 0.000000000000e+00 
3.949559167851e+01 0.000000000000e+00 
3.953776902901e+01 0.000000000000e+00 
3.964881450798e+01 0.000000000000e+00 
3.968945963066e+01 0.000000000000e+00 
3.980050510963e+01 0.000000000000e+00 
3.983963332518e+01 0.000000000000e+00 
3.995067880415e+01 0.000000000000e+00 
3.998830528150e+01 0.000000000000e+00 
4.009935076047e+01 0.000000000000e+00 
4.013549051712e+01 0.000000000000e+00 
4.024653599609e+01 0.000000000000e+00 
4.028120390124e+01 0.000000000000e+00 
4.039224938021e+01 0.000000000000e+00 
4.042546015241e+01 0.000000000000e+00 
4.053650563138e+01 0.000000000000e+00 
4.056827383902e+01 0.000000000000e+00 
4.067931931799e+01 0.000000000000e+00 
4.070965939005e+01 0.000000000000e+00 
4.082070486902e+01 0.000000000000e+00 
4.084963108740e+01 0.000000000000e+00 
4.096067656637e+01 0.000000000000e+00 
4.098820306631e+01 0.000000000000e+00 
4.109924854528e+01 0.000000000000e+00 
4.112538932605e+01 0.000000000000e+00 
4.123643480501e+01 0.000000000000e+00 
4.126120372475e+01 0.000000000000e+00 
4.137224920372e+01 0.000000000000e+00 
4.139565997713e+01 0.000000000000e+00 
4.150670545610e+01 0.000000000000e+00 
4.152877166509e+01 0.000000000000e+00 
4.163981714406e+01 0.000000000000e+00 
4.166055223775e+01 0.000000000000e+00 
4.177159771672e+01 0.000000000000e+00 
4.179101500635e+01 0.000000000000e+00 
4.190206048531e+01 0.000000000000e+00 
4.192017314694e+01 0.000000000000e+00 
4.203121862591e+01 0.000000000000e+00 
4.204803970573e+01 0.000000000000e+00 
4.215908518470e+01 0.000000000000e+00 
4.217462759900e+01 0.000000000000e+00 
4.228567307797e+01 0.000000000000e+00 
4.229994961314e+01 0.000000000000e+00 
4.241099509210e+01 0.000000000000e+00 
4.242401840722e+01 0.000000000000e+00 
4.253506388619e+01 0.000000000000e+00 
4.254684651297e+01 0.000000000000e+00 
4.265789199194e+01 0.000000000000e+00 
4.266844633723e+01 0.000000000000e+00 
4.277949181620e+01 0.000000000000e+00 
4.278883016453e+01 0.000000000000e+00 
4.289987564350e+01 0.000000000000e+00 
4.290801015426e+01 0.000000000000e+00 
4.301905563323e+01 0.000000000000e+00 
4.302599834321e+01 0.000000000000e+00 
4.313704382218e+01 0.000000000000e+00 
4.314280665057e+01 0.000000000000e+00 
4.325385212954e+01 0.000000000000e+00 
4.325844687510e+01 0.000000000000e+00 
4.336949235407e+01 0.000000000000e+00 
4.337293069752e+01 0.000000000000e+00 
4.348397617649e+01 0.000000000000e+00 
4.348626968025e+01 0.000000000000e+00 
4.359731515922e+01 0.000000000000e+00 
4.359847527241e+01 0.000000000000e+00 
4.370952075138e+01 0.000000000000e+00 
4.370955880939e+01 0.000000000000e+00 
4.381953151003e+01 0.000000000000e+00 
4.382060428836e+01 0.000000000000e+00 
4.392840448407e+01 0.000000000000e+00 
4.393057698900e+01 0.000000000000e+00 
4.403618872911e+01 0.000000000000e+00 
4.403944996303e+01 0.000000000000e+00 
4.414289513031e+01 0.000000000000e+00 
4.414723420808e+01 0.000000000000e+00 
4.424853446777e+01 0.000000000000e+00 
4.425394060927e+01 0.000000000000e+00 
4.435311741345e+01 0.000000000000e+00 
4.435957994674e+01 0.000000000000e+00 
4.445665452810e+01 0.000000000000e+00 
4.446416289241e+01 0.000000000000e+00 
4.455915627135e+01 0.000000000000e+00 
4.456770000707e+01 0.000000000000e+00 
4.466063299838e+01 0.000000000000e+00 
4.467020175031e+01 0.000000000000e+00 
4.476109495696e+01 0.000000000000e+00 
4.477167847735e+01 0.000000000000e+00 
4.486055229730e+01 0.000000000000e+00 
4.487214043592e+01 0.000000000000e+00 
4.495901506620e+01 0.000000000000e+00 
4.497159777627e+01 0.000000000000e+00 
4.505649320654e+01 0.000000000000e+00 
4.507006054516e+01 0.000000000000e+00 
4.515299656452e+01 0.000000000000e+00 
4.516753868551e+01 0.000000000000e+00 
4.524853488900e+01 0.000000000000e+00 
4.526404204349e+01 0.000000000000e+00 
4.534311783082e+01 0.000000000000e+00 
4.535958036797e+01 0.000000000000e+00 
4.543675494218e+01 0.000000000000e+00 
4.545416330978e+01 0.000000000000e+00 
4.552945568119e+01 0.000000000000e+00 
4.554780042114e+01 0.000000000000e+00 
4.562122941377e+01 0.000000000000e+00 
4.564050116016e+01 0.000000000000e+00 
4.571208541024e+01 0.000000000000e+00 
4.573227489274e+01 0.000000000000e+00 
4.580203284728e+01 0.000000000000e+00 
4.582313088921e+01 0.000000000000e+00 
4.589108080974e+01 0.000000000000e+00 
4.591307832625e+01 0.000000000000e+00 
4.597923829250e+01 0.000000000000e+00 
4.600212628870e+01 0.000000000000e+00 
4.606651419966e+01 0.000000000000e+00 
4.609028377147e+01 0.000000000000e+00 
4.615291734633e+01 0.000000000000e+00 
4.617755967863e+01 0.000000000000e+00 
4.623845646303e+01 0.000000000000e+00 
4.626396282530e+01 0.000000000000e+00 
4.632314018956e+01 0.000000000000e+00 
4.634950194200e+01 0.000000000000e+00 
4.640697707682e+01 0.000000000000e+00 
4.643418566853e+01 0.000000000000e+00 
4.648997559375e+01 0.000000000000e+00 
4.651802255579e+01 0.000000000000e+00 
4.657214412639e+01 0.000000000000e+00 
4.660102107272e+01 0.000000000000e+00 
4.665349097433e+01 0.000000000000e+00 
4.668318960536e+01 0.000000000000e+00 
4.673402435504e+01 0.000000000000e+00 
4.676453645329e+01 0.000000000000e+00 
4.681375240289e+01 0.000000000000e+00 
4.684506983401e+01 0.000000000000e+00 
4.689268316820e+01 0.000000000000e+00 
4.692479788186e+01 0.000000000000e+00 
4.697082462411e+01 0.000000000000e+00 
4.700372864717e+01 0.000000000000e+00 
4.704818466553e+01 0.000000000000e+00 
4.708187010307e+01 0.000000000000e+00 
4.712477110812e+01 0.000000000000e+00 
4.715923014450e+01 0.000000000000e+00 
4.720059168723e+01 0.000000000000e+00 
4.723581658708e+01 0.000000000000e+00 
4.727565405955e+01 0.000000000000e+00 
4.731163716620e+01 0.000000000000e+00 
4.734996580721e+01 0.000000000000e+00 
4.738669953852e+01 0.000000000000e+00 
4.742353443932e+01 0.000000000000e+00 
4.746101128618e+01 0.000000000000e+00 
4.753457991829e+01 0.000000000000e+00 
 TITLE = "Profiles along polylines"
 VARIABLES = "DIST" "HEAD" 
 ZONE T="TIME=1.797693134862e+308"
1.242353443932e+01 3.357335312733e+01 
1.253457991829e+01 3.356477753979e+01 
1.284636738358e+01 3.357314596370e+01 
1.295741286255e+01 3.356456997316e+01 
1.326497200072e+01 3.357294236646e+01 
1.337601747969e+01 3.356436597046e+01 
1.367939057059e+01 3.357274227009e+01 
1.379043604956e+01 3.356416546632e+01 
1.408966495461e+01 3.357254561033e+01 
1.420071043358e+01 3.356396839662e+01 
1.449583659627e+01 3.357235232413e+01 
1.460688207524e+01 3.356377469848e+01 
1.489794652169e+01 3.357216234963e+01 
1.500899200066e+01 3.356358431022e+01 
1.529603534794e+01 3.357197562620e+01 
1.540708082691e+01 3.356339717135e+01 
1.569014328595e+01 3.357179209434e+01 
1.580118876492e+01 3.356321322257e+01 
1.608031014343e+01 3.357161169574e+01 
1.619135562240e+01 3.356303240572e+01 
1.646657533030e+01 3.357143437317e+01 
1.657762080926e+01 3.356285466374e+01 
1.684897786659e+01 3.357126007053e+01 
1.696002334556e+01 3.356267994071e+01 
1.722755637723e+01 3.357108873278e+01 
1.733860185619e+01 3.356250818176e+01 
1.760234910257e+01 3.357092030594e+01 
1.771339458154e+01 3.356233933308e+01 
1.797339390072e+01 3.357075473708e+01 
1.808443937969e+01 3.356217334190e+01 
1.834072825009e+01 3.357059197425e+01 
1.845177372906e+01 3.356201015646e+01 
1.870438925685e+01 3.357043196653e+01 
1.881543473582e+01 3.356184972598e+01 
1.906441365203e+01 3.357027466396e+01 
1.917545913100e+01 3.356169200067e+01 
1.942083780414e+01 3.357012001752e+01 
1.953188328311e+01 3.356153693167e+01 
1.977369771600e+01 3.356996797914e+01 
1.988474319497e+01 3.356138447107e+01 
2.012302902947e+01 3.356981850167e+01 
2.023407450844e+01 3.356123457186e+01 
2.046886702997e+01 3.356967153884e+01 
2.057991250893e+01 3.356108718794e+01 
2.081124664840e+01 3.356952704527e+01 
2.092229212737e+01 3.356094227407e+01 
2.115020247085e+01 3.356938497644e+01 
2.126124794982e+01 3.356079978587e+01 
2.148576873498e+01 3.356924528868e+01 
2.159681421395e+01 3.356065967981e+01 
2.181797933709e+01 3.356910793913e+01 
2.192902481606e+01 3.356052191318e+01 
2.214686783357e+01 3.356897288578e+01 
2.225791331254e+01 3.356038644407e+01 
2.247246744523e+01 3.356884008737e+01 
2.258351292419e+01 3.356025323138e+01 
2.279481106121e+01 3.356870950345e+01 
2.290585654018e+01 3.356012223476e+01 
2.311393124056e+01 3.356858109431e+01 
2.322497671953e+01 3.355999341463e+01 
2.342986021868e+01 3.356845482101e+01 
2.354090569765e+01 3.355986673216e+01 
2.374262990603e+01 3.356833064535e+01 
2.385367538500e+01 3.355974214926e+01 
2.405227189722e+01 3.356820852981e+01 
2.416331737619e+01 3.355961962852e+01 
2.435881746944e+01 3.356808843762e+01 
2.446986294840e+01 3.355949913326e+01 
2.466229758364e+01 3.356797033267e+01 
2.477334306260e+01 3.355938062749e+01 
2.496274289600e+01 3.356785417956e+01 
2.507378837497e+01 3.355926407587e+01 
2.526018375622e+01 3.356773994351e+01 
2.537122923519e+01 3.355914944374e+01 
2.555465020840e+01 3.356762759043e+01 
2.566569568737e+01 3.355903669707e+01 
2.584617199718e+01 3.356751708685e+01 
2.595721747615e+01 3.355892580249e+01 
2.613477856844e+01 3.356740839993e+01 
2.624582404741e+01 3.355881672722e+01 
2.642049907268e+01 3.356730149745e+01 
2.653154455165e+01 3.355870943912e+01 
2.670336237091e+01 3.356719634778e+01 
2.681440784988e+01 3.355860390663e+01 
2.698339703519e+01 3.356709291989e+01 
2.709444251416e+01 3.355850009877e+01 
2.726063135182e+01 3.356699118332e+01 
2.737167683079e+01 3.355839798516e+01 
2.753509332704e+01 3.356689110819e+01 
2.764613880601e+01 3.355829753595e+01 
2.780681068477e+01 3.356679266517e+01 
2.791785616374e+01 3.355819872188e+01 
2.807581086968e+01 3.356669582546e+01 
2.818685634865e+01 3.355810151420e+01 
2.834212105272e+01 3.356660056082e+01 
2.845316653168e+01 3.355800588471e+01 
2.860576813132e+01 3.356650684352e+01 
2.871681361029e+01 3.355791180572e+01 
2.886677873757e+01 3.356641464635e+01 
2.897782421654e+01 3.355781925006e+01 
2.912517923816e+01 3.356632394261e+01 
2.923622471713e+01 3.355772819106e+01 
2.938099573459e+01 3.356623470607e+01 
2.949204121356e+01 3.355763860254e+01 
2.963425406579e+01 3.356614691101e+01 
2.974529954476e+01 3.355755045879e+01 
2.988497981338e+01 3.356606053219e+01 
2.999602529234e+01 3.355746373459e+01 
3.013319830414e+01 3.356597554480e+01 
3.024424378311e+01 3.355737840518e+01 
3.037893460998e+01 3.356589192453e+01 
3.048998008895e+01 3.355729444624e+01 
3.062221355291e+01 3.356580964750e+01 
3.073325903188e+01 3.355721183393e+01 
3.086305970752e+01 3.356572869027e+01 
3.097410518649e+01 3.355713054481e+01 
3.110149740060e+01 3.356564902983e+01 
3.121254287957e+01 3.355705055589e+01 
3.133755071621e+01 3.356557064360e+01 
3.144859619518e+01 3.355697184460e+01 
3.157124349776e+01 3.356549350941e+01 
3.168228897673e+01 3.355689438877e+01 
3.180259935033e+01 3.356541760551e+01 
3.191364482930e+01 3.355681816666e+01 
3.203164164536e+01 3.356534291052e+01 
3.214268712432e+01 3.355674315690e+01 
3.225839351751e+01 3.356526940349e+01 
3.236943899648e+01 3.355666933853e+01 
3.248287787202e+01 3.356519706383e+01 
3.259392335099e+01 3.355659669096e+01 
3.270511738402e+01 3.356512587134e+01 
3.281616286299e+01 3.355652519399e+01 
3.292513450054e+01 3.356505580617e+01 
3.303617997951e+01 3.355645482777e+01 
3.314295144505e+01 3.356498684886e+01 
3.325399692401e+01 3.355638557282e+01 
3.335859021930e+01 3.356491898029e+01 
3.346963569827e+01 3.355631741002e+01 
3.357207260515e+01 3.356485218169e+01 
3.368311808412e+01 3.355625032060e+01 
3.378342016638e+01 3.356478643464e+01 
3.389446564535e+01 3.355618428611e+01 
3.399265425298e+01 3.356472172104e+01 
3.410369973195e+01 3.355611928846e+01 
3.419979600026e+01 3.356465802315e+01 
3.431084147923e+01 3.355605530986e+01 
3.440486633050e+01 3.356459532353e+01 
3.451591180947e+01 3.355599233289e+01 
3.460788595719e+01 3.356453360505e+01 
3.471893143616e+01 3.355593034039e+01 
3.480887538658e+01 3.356447285092e+01 
3.491992086555e+01 3.355586931555e+01 
3.500785492184e+01 3.356441304464e+01 
3.511890040081e+01 3.355580924185e+01 
3.520484466187e+01 3.356435417000e+01 
3.531589014084e+01 3.355575010307e+01 
3.539986450540e+01 3.356429621111e+01 
3.551090998437e+01 3.355569188328e+01 
3.559293415238e+01 3.356423915233e+01 
3.570397963134e+01 3.355563456685e+01 
3.578407310280e+01 3.356418297835e+01 
3.589511858177e+01 3.355557813842e+01 
3.597330066298e+01 3.356412767410e+01 
3.608434614195e+01 3.355552258291e+01 
3.616063594723e+01 3.356407322481e+01 
3.627168142620e+01 3.355546788551e+01 
3.634609787883e+01 3.356401961595e+01 
3.645714335780e+01 3.355541403169e+01 
3.652970519130e+01 3.356396683328e+01 
3.664075067026e+01 3.355536100716e+01 
3.671147642957e+01 3.356391486280e+01 
3.682252190854e+01 3.355530879791e+01 
3.689142995375e+01 3.356386369076e+01 
3.700247543272e+01 3.355525739016e+01 
3.706958394281e+01 3.356381330368e+01 
3.718062942178e+01 3.355520677040e+01 
3.724595639297e+01 3.356376368831e+01 
3.735700187194e+01 3.355515692535e+01 
3.742056511878e+01 3.356371483162e+01 
3.753161059775e+01 3.355510784196e+01 
3.759342775670e+01 3.356366672085e+01 
3.770447323566e+01 3.355505950744e+01 
3.776456176866e+01 3.356361934345e+01 
3.787560724762e+01 3.355501190920e+01 
3.793398444032e+01 3.356357268708e+01 
3.804502991929e+01 3.355496503489e+01 
3.810171288465e+01 3.356352673967e+01 
3.821275836362e+01 3.355491887239e+01 
3.826776404527e+01 3.356348148931e+01 
3.837880952424e+01 3.355487340978e+01 
3.843215469469e+01 3.356343692434e+01 
3.854320017366e+01 3.355482863537e+01 
3.859490143772e+01 3.356339303330e+01 
3.870594691669e+01 3.355478453765e+01 
3.875602071215e+01 3.356334980494e+01 
3.886706619112e+01 3.355474110536e+01 
3.891552879477e+01 3.356330722820e+01 
3.902657427374e+01 3.355469832739e+01 
3.907344179666e+01 3.356326529222e+01 
3.918448727563e+01 3.355465619287e+01 
3.922977566664e+01 3.356322398634e+01 
3.934082114560e+01 3.355461469111e+01 
3.938454619954e+01 3.356318330010e+01 
3.949559167851e+01 3.355457381159e+01 
3.953776902901e+01 3.356314322320e+01 
3.964881450798e+01 3.355453354401e+01 
3.968945963066e+01 3.356310374554e+01 
3.980050510963e+01 3.355449387824e+01 
3.983963332518e+01 3.356306485720e+01 
3.995067880415e+01 3.355445480432e+01 
3.998830528150e+01 3.356302654845e+01 
4.009935076047e+01 3.355441631248e+01 
4.013549051712e+01 3.356298880970e+01 
4.024653599609e+01 3.355437839312e+01 
4.028120390124e+01 3.356295163156e+01 
4.039224938021e+01 3.355434103680e+01 
4.042546015241e+01 3.356291500479e+01 
4.053650563138e+01 3.355430423426e+01 
4.056827383902e+01 3.356287892032e+01 
4.067931931799e+01 3.355426797641e+01 
4.070965939005e+01 3.356284336925e+01 
4.082070486902e+01 3.355423225429e+01 
4.084963108740e+01 3.356280834281e+01 
4.096067656637e+01 3.355419705914e+01 
4.098820306631e+01 3.356277383242e+01 
4.109924854528e+01 3.355416238232e+01 
4.112538932605e+01 3.356273982962e+01 
4.123643480501e+01 3.355412821536e+01 
4.126120372475e+01 3.356270632613e+01 
4.137224920372e+01 3.355409454994e+01 
4.139565997713e+01 3.356267331380e+01 
4.150670545610e+01 3.355406137788e+01 
4.152877166509e+01 3.356264078461e+01 
4.163981714406e+01 3.355402869114e+01 
4.166055223775e+01 3.356260873072e+01 
4.177159771672e+01 3.355399648183e+01 
4.179101500635e+01 3.356257714438e+01 
4.190206048531e+01 3.355396474220e+01 
4.192017314694e+01 3.356254601801e+01 
4.203121862591e+01 3.355393346463e+01 
4.204803970573e+01 3.356251534416e+01 
4.215908518470e+01 3.355390264164e+01 
4.217462759900e+01 3.356248511550e+01 
4.228567307797e+01 3.355387226587e+01 
4.229994961314e+01 3.356245532483e+01 
4.241099509210e+01 3.355384233010e+01 
4.242401840722e+01 3.356242596508e+01 
4.253506388619e+01 3.355381282723e+01 
4.254684651297e+01 3.356239702931e+01 
4.265789199194e+01 3.355378375029e+01 
4.266844633723e+01 3.356236851069e+01 
4.277949181620e+01 3.355375509243e+01 
4.278883016453e+01 3.356234040252e+01 
4.289987564350e+01 3.355372684691e+01 
4.290801015426e+01 3.356231269820e+01 
4.301905563323e+01 3.355369900711e+01 
4.302599834321e+01 3.356228539127e+01 
4.313704382218e+01 3.355367156655e+01 
4.314280665057e+01 3.356225847536e+01 
4.325385212954e+01 3.355364451884e+01 
4.325844687510e+01 3.356223194422e+01 
4.336949235407e+01 3.355361785769e+01 
4.337293069752e+01 3.356220579171e+01 
4.348397617649e+01 3.355359157694e+01 
4.348626968025e+01 3.356218001180e+01 
4.359731515922e+01 3.355356567053e+01 
4.359847527241e+01 3.356215459857e+01 
4.370952075138e+01 3.355354013252e+01 
4.370955880939e+01 3.356212954617e+01 
4.381953151003e+01 3.356210484888e+01 
4.382060428836e+01 3.355351495704e+01 
4.392840448407e+01 3.356208050109e+01 
4.393057698900e+01 3.355349013835e+01 
4.403618872911e+01 3.356205649725e+01 
4.403944996303e+01 3.355346567080e+01 
4.414289513031e+01 3.356203283195e+01 
4.414723420808e+01 3.355344154883e+01 
4.424853446777e+01 3.356200949982e+01 
4.425394060927e+01 3.355341776699e+01 
4.435311741345e+01 3.356198649564e+01 
4.435957994674e+01 3.355339431992e+01 
4.445665452810e+01 3.356196381424e+01 
4.446416289241e+01 3.355337120234e+01 
4.455915627135e+01 3.356194145054e+01 
4.456770000707e+01 3.355334840908e+01 
4.466063299838e+01 3.356191939958e+01 
4.467020175031e+01 3.355332593504e+01 
4.476109495696e+01 3.356189765646e+01 
4.477167847735e+01 3.355330377522e+01 
4.486055229730e+01 3.356187621635e+01 
4.487214043592e+01 3.355328192471e+01 
4.495901506620e+01 3.356185507454e+01 
4.497159777627e+01 3.355326037866e+01 
4.505649320654e+01 3.356183422638e+01 
4.507006054516e+01 3.355323913234e+01 
4.515299656452e+01 3.356181366728e+01 
4.516753868551e+01 3.355321818107e+01 
4.524853488900e+01 3.356179339278e+01 
4.526404204349e+01 3.355319752025e+01 
4.534311783082e+01 3.356177339844e+01 
4.535958036797e+01 3.355317714539e+01 
4.543675494218e+01 3.356175367993e+01 
4.545416330978e+01 3.355315705205e+01 
4.552945568119e+01 3.356173423299e+01 
4.554780042114e+01 3.355313723586e+01 
4.562122941377e+01 3.356171505342e+01 
4.564050116016e+01 3.355311769254e+01 
4.571208541024e+01 3.356169613710e+01 
4.573227489274e+01 3.355309841789e+01 
4.580203284728e+01 3.356167747997e+01 
4.582313088921e+01 3.355307940775e+01 
4.589108080974e+01 3.356165907807e+01 
4.591307832625e+01 3.355306065807e+01 
4.597923829250e+01 3.356164092746e+01 
4.600212628870e+01 3.355304216483e+01 
4.606651419966e+01 3.356162302430e+01 
4.609028377147e+01 3.355302392410e+01 
4.615291734633e+01 3.356160536481e+01 
4.617755967863e+01 3.355300593203e+01 
4.623845646303e+01 3.356158794526e+01 
4.626396282530e+01 3.355298818480e+01 
4.632314018956e+01 3.356157076200e+01 
4.634950194200e+01 3.355297067868e+01 
4.640697707682e+01 3.356155381142e+01 
4.643418566853e+01 3.355295340999e+01 
4.648997559375e+01 3.356153709001e+01 
4.651802255579e+01 3.355293637512e+01 
4.657214412639e+01 3.356152059426e+01 
4.660102107272e+01 3.355291957051e+01 
4.665349097433e+01 3.356150432078e+01 
4.668318960536e+01 3.355290299268e+01 
4.673402435504e+01 3.356148826620e+01 
4.676453645329e+01 3.355288663819e+01 
4.681375240289e+01 3.356147242720e+01 
4.684506983401e+01 3.355287050366e+01 
4.689268316820e+01 3.356145680055e+01 
4.692479788186e+01 3.355285458578e+01 
4.697082462411e+01 3.356144138305e+01 
4.700372864717e+01 3.355283888127e+01 
4.704818466553e+01 3.356142617155e+01 
4.708187010307e+01 3.355282338693e+01 
4.712477110812e+01 3.356141116296e+01 
4.715923014450e+01 3.355280809959e+01 
4.720059168723e+01 3.356139635425e+01 
4.723581658708e+01 3.355279301616e+01 
4.727565405955e+01 3.356138174243e+01 
4.731163716620e+01 3.355277813358e+01 
4.734996580721e+01 3.356136732455e+01 
4.738669953852e+01 3.355276344885e+01 
4.742353443932e+01 3.356135309774e+01 
4.746101128618e+01 3.355274895901e+01 
4.753457991829e+01 3.355273466118e+01 
