 TITLE = "Profiles along polylines"
 VARIABLES = "DIST" "HEAD" 
 ZONE T="TIME=0.000000000000e+00"
3.387085154477e+01 0.000000000000e+00 
3.416445066101e+01 0.000000000000e+00 
3.429368448904e+01 0.000000000000e+00 
3.458728360528e+01 0.000000000000e+00 
3.471228910618e+01 0.000000000000e+00 
3.500588822242e+01 0.000000000000e+00 
3.512670767605e+01 0.000000000000e+00 
3.542030679229e+01 0.000000000000e+00 
3.553698206007e+01 0.000000000000e+00 
3.583058117631e+01 0.000000000000e+00 
3.594315370172e+01 0.000000000000e+00 
3.623675281796e+01 0.000000000000e+00 
3.634526362714e+01 0.000000000000e+00 
3.663886274339e+01 0.000000000000e+00 
3.674335245339e+01 0.000000000000e+00 
3.703695156964e+01 0.000000000000e+00 
3.713746039141e+01 0.000000000000e+00 
3.743105950765e+01 0.000000000000e+00 
3.752762724889e+01 0.000000000000e+00 
3.782122636513e+01 0.000000000000e+00 
3.791389243575e+01 0.000000000000e+00 
3.820749155199e+01 0.000000000000e+00 
3.829629497204e+01 0.000000000000e+00 
3.858989408829e+01 0.000000000000e+00 
3.867487348268e+01 0.000000000000e+00 
3.896847259893e+01 0.000000000000e+00 
3.904966620803e+01 0.000000000000e+00 
3.934326532427e+01 0.000000000000e+00 
3.942071100618e+01 0.000000000000e+00 
3.971431012242e+01 0.000000000000e+00 
3.978804535555e+01 0.000000000000e+00 
4.008164447179e+01 0.000000000000e+00 
4.015170636231e+01 0.000000000000e+00 
4.044530547855e+01 0.000000000000e+00 
4.051173075749e+01 0.000000000000e+00 
4.080532987373e+01 0.000000000000e+00 
4.086815490960e+01 0.000000000000e+00 
4.116175402584e+01 0.000000000000e+00 
4.122101482146e+01 0.000000000000e+00 
4.151461393770e+01 0.000000000000e+00 
4.157034613493e+01 0.000000000000e+00 
4.186394525118e+01 0.000000000000e+00 
4.191618413543e+01 0.000000000000e+00 
4.220978325167e+01 0.000000000000e+00 
4.225856375386e+01 0.000000000000e+00 
4.255216287010e+01 0.000000000000e+00 
4.259751957631e+01 0.000000000000e+00 
4.289111869255e+01 0.000000000000e+00 
4.293308584044e+01 0.000000000000e+00 
4.322668495668e+01 0.000000000000e+00 
4.326529644255e+01 0.000000000000e+00 
4.355889555879e+01 0.000000000000e+00 
4.359418493903e+01 0.000000000000e+00 
4.388778405528e+01 0.000000000000e+00 
4.391978455069e+01 0.000000000000e+00 
4.421338366693e+01 0.000000000000e+00 
4.424212816667e+01 0.000000000000e+00 
4.453572728292e+01 0.000000000000e+00 
4.456124834602e+01 0.000000000000e+00 
4.485484746227e+01 0.000000000000e+00 
4.487717732414e+01 0.000000000000e+00 
4.517077644038e+01 0.000000000000e+00 
4.518994701149e+01 0.000000000000e+00 
4.548354612774e+01 0.000000000000e+00 
4.549958900268e+01 0.000000000000e+00 
4.579318811893e+01 0.000000000000e+00 
4.580613457490e+01 0.000000000000e+00 
4.609973369114e+01 0.000000000000e+00 
4.610961468910e+01 0.000000000000e+00 
4.640321380534e+01 0.000000000000e+00 
4.641006000147e+01 0.000000000000e+00 
4.670365911771e+01 0.000000000000e+00 
4.670750086168e+01 0.000000000000e+00 
4.700109997793e+01 0.000000000000e+00 
4.700196731387e+01 0.000000000000e+00 
4.729348910265e+01 0.000000000000e+00 
4.729556643011e+01 0.000000000000e+00 
4.758209567391e+01 0.000000000000e+00 
4.758708821889e+01 0.000000000000e+00 
4.786781617815e+01 0.000000000000e+00 
4.787569479015e+01 0.000000000000e+00 
4.815067947638e+01 0.000000000000e+00 
4.816141529439e+01 0.000000000000e+00 
4.843071414066e+01 0.000000000000e+00 
4.844427859262e+01 0.000000000000e+00 
4.870794845729e+01 0.000000000000e+00 
4.872431325690e+01 0.000000000000e+00 
4.898241043251e+01 0.000000000000e+00 
4.900154757353e+01 0.000000000000e+00 
4.925412779024e+01 0.000000000000e+00 
4.927600954875e+01 0.000000000000e+00 
4.952312797515e+01 0.000000000000e+00 
4.954772690648e+01 0.000000000000e+00 
4.978943815819e+01 0.000000000000e+00 
4.981672709139e+01 0.000000000000e+00 
5.005308523679e+01 0.000000000000e+00 
5.008303727443e+01 0.000000000000e+00 
5.031409584305e+01 0.000000000000e+00 
5.034668435304e+01 0.000000000000e+00 
5.057249634363e+01 0.000000000000e+00 
5.060769495929e+01 0.000000000000e+00 
5.082831284006e+01 0.000000000000e+00 
5.086609545987e+01 0.000000000000e+00 
5.108157117126e+01 0.000000000000e+00 
5.112191195631e+01 0.000000000000e+00 
5.133229691885e+01 0.000000000000e+00 
5.137517028750e+01 0.000000000000e+00 
5.158051540961e+01 0.000000000000e+00 
5.162589603509e+01 0.000000000000e+00 
5.182625171545e+01 0.000000000000e+00 
5.187411452585e+01 0.000000000000e+00 
5.206953065838e+01 0.000000000000e+00 
5.211985083169e+01 0.000000000000e+00 
5.231037681299e+01 0.000000000000e+00 
5.236312977462e+01 0.000000000000e+00 
5.254881450607e+01 0.000000000000e+00 
5.260397592923e+01 0.000000000000e+00 
5.278486782168e+01 0.000000000000e+00 
5.284241362232e+01 0.000000000000e+00 
5.301856060323e+01 0.000000000000e+00 
5.307846693793e+01 0.000000000000e+00 
5.324991645580e+01 0.000000000000e+00 
5.331215971947e+01 0.000000000000e+00 
5.347895875083e+01 0.000000000000e+00 
5.354351557204e+01 0.000000000000e+00 
5.370571062298e+01 0.000000000000e+00 
5.377255786707e+01 0.000000000000e+00 
5.393019497749e+01 0.000000000000e+00 
5.399930973922e+01 0.000000000000e+00 
5.415243448949e+01 0.000000000000e+00 
5.422379409374e+01 0.000000000000e+00 
5.437245160601e+01 0.000000000000e+00 
5.444603360573e+01 0.000000000000e+00 
5.459026855051e+01 0.000000000000e+00 
5.466605072225e+01 0.000000000000e+00 
5.480590732476e+01 0.000000000000e+00 
5.488386766676e+01 0.000000000000e+00 
5.501938971062e+01 0.000000000000e+00 
5.509950644101e+01 0.000000000000e+00 
5.523073727185e+01 0.000000000000e+00 
5.531298882686e+01 0.000000000000e+00 
5.543997135845e+01 0.000000000000e+00 
5.552433638809e+01 0.000000000000e+00 
5.564711310573e+01 0.000000000000e+00 
5.573357047469e+01 0.000000000000e+00 
5.585218343596e+01 0.000000000000e+00 
5.594071222197e+01 0.000000000000e+00 
5.605520306265e+01 0.000000000000e+00 
5.614578255221e+01 0.000000000000e+00 
5.625619249204e+01 0.000000000000e+00 
5.634880217890e+01 0.000000000000e+00 
5.645517202731e+01 0.000000000000e+00 
5.654979160829e+01 0.000000000000e+00 
5.665216176734e+01 0.000000000000e+00 
5.674877114355e+01 0.000000000000e+00 
5.684718161086e+01 0.000000000000e+00 
5.694576088358e+01 0.000000000000e+00 
5.704025125784e+01 0.000000000000e+00 
5.714078072711e+01 0.000000000000e+00 
5.723139020826e+01 0.000000000000e+00 
5.733385037408e+01 0.000000000000e+00 
5.742061776845e+01 0.000000000000e+00 
5.752498932450e+01 0.000000000000e+00 
5.760795305269e+01 0.000000000000e+00 
5.771421688469e+01 0.000000000000e+00 
5.779341498429e+01 0.000000000000e+00 
5.790155216894e+01 0.000000000000e+00 
5.797702229676e+01 0.000000000000e+00 
5.808701410053e+01 0.000000000000e+00 
5.815879353503e+01 0.000000000000e+00 
5.827062141300e+01 0.000000000000e+00 
5.833874705922e+01 0.000000000000e+00 
5.845239265127e+01 0.000000000000e+00 
5.851690104827e+01 0.000000000000e+00 
5.863234617546e+01 0.000000000000e+00 
5.869327349844e+01 0.000000000000e+00 
5.881050016452e+01 0.000000000000e+00 
5.886788222424e+01 0.000000000000e+00 
5.898687261468e+01 0.000000000000e+00 
5.904074486216e+01 0.000000000000e+00 
5.916148134049e+01 0.000000000000e+00 
5.921187887412e+01 0.000000000000e+00 
5.933434397840e+01 0.000000000000e+00 
5.938130154579e+01 0.000000000000e+00 
5.950547799036e+01 0.000000000000e+00 
5.954902999011e+01 0.000000000000e+00 
5.967490066203e+01 0.000000000000e+00 
5.971508115073e+01 0.000000000000e+00 
5.984262910636e+01 0.000000000000e+00 
5.987947180015e+01 0.000000000000e+00 
6.000868026697e+01 0.000000000000e+00 
6.004221854318e+01 0.000000000000e+00 
6.017307091640e+01 0.000000000000e+00 
6.020333781761e+01 0.000000000000e+00 
6.033581765942e+01 0.000000000000e+00 
6.036284590023e+01 0.000000000000e+00 
6.049693693385e+01 0.000000000000e+00 
6.052075890212e+01 0.000000000000e+00 
6.065644501647e+01 0.000000000000e+00 
6.067709277209e+01 0.000000000000e+00 
6.081435801836e+01 0.000000000000e+00 
6.083186330500e+01 0.000000000000e+00 
6.097069188834e+01 0.000000000000e+00 
6.098508613447e+01 0.000000000000e+00 
6.112546242124e+01 0.000000000000e+00 
6.113677673612e+01 0.000000000000e+00 
6.127868525072e+01 0.000000000000e+00 
6.128695043064e+01 0.000000000000e+00 
6.143037585236e+01 0.000000000000e+00 
6.143562238696e+01 0.000000000000e+00 
6.158054954689e+01 0.000000000000e+00 
6.158280762258e+01 0.000000000000e+00 
6.172852100670e+01 0.000000000000e+00 
6.172922150320e+01 0.000000000000e+00 
6.187277725787e+01 0.000000000000e+00 
6.187640673882e+01 0.000000000000e+00 
6.201559094448e+01 0.000000000000e+00 
6.202212012294e+01 0.000000000000e+00 
6.215697649551e+01 0.000000000000e+00 
6.216637637411e+01 0.000000000000e+00 
6.229694819286e+01 0.000000000000e+00 
6.230919006072e+01 0.000000000000e+00 
6.243552017177e+01 0.000000000000e+00 
6.245057561175e+01 0.000000000000e+00 
6.257270643150e+01 0.000000000000e+00 
6.259054730910e+01 0.000000000000e+00 
6.270852083021e+01 0.000000000000e+00 
6.272911928801e+01 0.000000000000e+00 
6.284297708258e+01 0.000000000000e+00 
6.286630554774e+01 0.000000000000e+00 
6.297608877054e+01 0.000000000000e+00 
6.300211994645e+01 0.000000000000e+00 
6.310786934321e+01 0.000000000000e+00 
6.313657619883e+01 0.000000000000e+00 
6.323833211180e+01 0.000000000000e+00 
6.326968788679e+01 0.000000000000e+00 
6.336749025240e+01 0.000000000000e+00 
6.340146845945e+01 0.000000000000e+00 
6.349535681119e+01 0.000000000000e+00 
6.353193122804e+01 0.000000000000e+00 
6.362194470445e+01 0.000000000000e+00 
6.366108936864e+01 0.000000000000e+00 
6.374726671859e+01 0.000000000000e+00 
6.378895592743e+01 0.000000000000e+00 
6.387133551268e+01 0.000000000000e+00 
6.391554382070e+01 0.000000000000e+00 
6.399416361842e+01 0.000000000000e+00 
6.404086583483e+01 0.000000000000e+00 
6.411576344268e+01 0.000000000000e+00 
6.416493462892e+01 0.000000000000e+00 
6.423614726998e+01 0.000000000000e+00 
6.428776273467e+01 0.000000000000e+00 
6.435532725971e+01 0.000000000000e+00 
6.440936255893e+01 0.000000000000e+00 
6.447331544866e+01 0.000000000000e+00 
6.452974638623e+01 0.000000000000e+00 
6.459012375603e+01 0.000000000000e+00 
6.464892637596e+01 0.000000000000e+00 
6.470576398056e+01 0.000000000000e+00 
6.476691456491e+01 0.000000000000e+00 
6.482024780298e+01 0.000000000000e+00 
6.488372287227e+01 0.000000000000e+00 
6.493358678571e+01 0.000000000000e+00 
6.499936309680e+01 0.000000000000e+00 
6.504579237786e+01 0.000000000000e+00 
6.511384691922e+01 0.000000000000e+00 
6.515687591485e+01 0.000000000000e+00 
6.522718590195e+01 0.000000000000e+00 
6.526684861549e+01 0.000000000000e+00 
6.533939149411e+01 0.000000000000e+00 
6.537572158952e+01 0.000000000000e+00 
6.545047503109e+01 0.000000000000e+00 
6.548350583456e+01 0.000000000000e+00 
6.556044773173e+01 0.000000000000e+00 
6.559021223576e+01 0.000000000000e+00 
6.566932070576e+01 0.000000000000e+00 
6.569585157322e+01 0.000000000000e+00 
6.577710495081e+01 0.000000000000e+00 
6.580043451890e+01 0.000000000000e+00 
6.588381135200e+01 0.000000000000e+00 
6.590397163356e+01 0.000000000000e+00 
6.598945068947e+01 0.000000000000e+00 
6.600647337680e+01 0.000000000000e+00 
6.609403363514e+01 0.000000000000e+00 
6.610795010383e+01 0.000000000000e+00 
6.619757074980e+01 0.000000000000e+00 
6.620841206241e+01 0.000000000000e+00 
6.630007249304e+01 0.000000000000e+00 
6.630786940275e+01 0.000000000000e+00 
6.640154922008e+01 0.000000000000e+00 
6.640633217165e+01 0.000000000000e+00 
6.650201117865e+01 0.000000000000e+00 
6.650381031199e+01 0.000000000000e+00 
6.660031366998e+01 0.000000000000e+00 
6.660146851899e+01 0.000000000000e+00 
6.669585199445e+01 0.000000000000e+00 
6.669993128789e+01 0.000000000000e+00 
6.679043493627e+01 0.000000000000e+00 
6.679740942824e+01 0.000000000000e+00 
6.688407204763e+01 0.000000000000e+00 
6.689391278622e+01 0.000000000000e+00 
6.697677278665e+01 0.000000000000e+00 
6.698945111069e+01 0.000000000000e+00 
6.706854651922e+01 0.000000000000e+00 
6.708403405251e+01 0.000000000000e+00 
6.715940251569e+01 0.000000000000e+00 
6.717767116387e+01 0.000000000000e+00 
6.724934995273e+01 0.000000000000e+00 
6.727037190289e+01 0.000000000000e+00 
6.733839791519e+01 0.000000000000e+00 
6.736214563547e+01 0.000000000000e+00 
6.742655539796e+01 0.000000000000e+00 
6.745300163194e+01 0.000000000000e+00 
6.751383130511e+01 0.000000000000e+00 
6.754294906897e+01 0.000000000000e+00 
6.760023445178e+01 0.000000000000e+00 
6.763199703143e+01 0.000000000000e+00 
6.768577356849e+01 0.000000000000e+00 
6.772015451420e+01 0.000000000000e+00 
6.777045729502e+01 0.000000000000e+00 
6.780743042135e+01 0.000000000000e+00 
6.785429418227e+01 0.000000000000e+00 
6.789383356803e+01 0.000000000000e+00 
6.793729269920e+01 0.000000000000e+00 
6.797937268473e+01 0.000000000000e+00 
6.801946123184e+01 0.000000000000e+00 
6.806405641126e+01 0.000000000000e+00 
6.810080807978e+01 0.000000000000e+00 
6.814789329852e+01 0.000000000000e+00 
6.818134146049e+01 0.000000000000e+00 
6.823089181545e+01 0.000000000000e+00 
6.826106950834e+01 0.000000000000e+00 
6.831306034808e+01 0.000000000000e+00 
6.834000027365e+01 0.000000000000e+00 
6.839440719602e+01 0.000000000000e+00 
6.841814172956e+01 0.000000000000e+00 
6.847494057674e+01 0.000000000000e+00 
6.849550177098e+01 0.000000000000e+00 
6.855466862458e+01 0.000000000000e+00 
6.857208821357e+01 0.000000000000e+00 
6.863359938989e+01 0.000000000000e+00 
6.864790879268e+01 0.000000000000e+00 
6.871174084580e+01 0.000000000000e+00 
6.872297116500e+01 0.000000000000e+00 
6.878910088722e+01 0.000000000000e+00 
6.879728291266e+01 0.000000000000e+00 
6.886568732981e+01 0.000000000000e+00 
6.887085154477e+01 0.000000000000e+00 
6.894150790893e+01 0.000000000000e+00 
6.901657028125e+01 0.000000000000e+00 
6.909088202891e+01 0.000000000000e+00 
6.916445066101e+01 0.000000000000e+00 
 TITLE = "Profiles along polylines"
 VARIABLES = "DIST" "HEAD" 
 ZONE T="TIME=1.797693134862e+308"
3.387085154477e+01 3.239801247311e+01 
3.416445066101e+01 3.238134135968e+01 
3.429368448904e+01 3.239764557780e+01 
3.458728360528e+01 3.238097688570e+01 
3.471228910618e+01 3.239727945844e+01 
3.500588822242e+01 3.238061038419e+01 
3.512670767605e+01 3.239691399228e+01 
3.542030679229e+01 3.238024237560e+01 
3.553698206007e+01 3.239654916609e+01 
3.583058117631e+01 3.237987310974e+01 
3.594315370172e+01 3.239618501617e+01 
3.623675281796e+01 3.237950272495e+01 
3.634526362714e+01 3.239582160069e+01 
3.663886274339e+01 3.237913132969e+01 
3.674335245339e+01 3.239545898804e+01 
3.703695156964e+01 3.237875904088e+01 
3.713746039141e+01 3.239509725243e+01 
3.743105950765e+01 3.237838599851e+01 
3.752762724889e+01 3.239473647261e+01 
3.782122636513e+01 3.237801236809e+01 
3.791389243575e+01 3.239437673152e+01 
3.820749155199e+01 3.237763833728e+01 
3.829629497204e+01 3.239401811607e+01 
3.858989408829e+01 3.237726411022e+01 
3.867487348268e+01 3.239366071680e+01 
3.896847259893e+01 3.237688990147e+01 
3.904966620803e+01 3.239330462714e+01 
3.934326532427e+01 3.237651593045e+01 
3.942071100618e+01 3.239294994264e+01 
3.971431012242e+01 3.237614241666e+01 
3.978804535555e+01 3.239259676003e+01 
4.008164447179e+01 3.237576957596e+01 
4.015170636231e+01 3.239224517621e+01 
4.044530547855e+01 3.237539761767e+01 
4.051173075749e+01 3.239189528739e+01 
4.080532987373e+01 3.237502674247e+01 
4.086815490960e+01 3.239154718822e+01 
4.116175402584e+01 3.237465714102e+01 
4.122101482146e+01 3.239120097104e+01 
4.151461393770e+01 3.237428899300e+01 
4.157034613493e+01 3.239085672530e+01 
4.186394525118e+01 3.237392246672e+01 
4.191618413543e+01 3.239051453701e+01 
4.220978325167e+01 3.237355771888e+01 
4.225856375386e+01 3.239017448836e+01 
4.255216287010e+01 3.237319489473e+01 
4.259751957631e+01 3.238983665743e+01 
4.289111869255e+01 3.237283412825e+01 
4.293308584044e+01 3.238950111798e+01 
4.322668495668e+01 3.237247554261e+01 
4.326529644255e+01 3.238916793931e+01 
4.355889555879e+01 3.237211925054e+01 
4.359418493903e+01 3.238883718625e+01 
4.388778405528e+01 3.237176535493e+01 
4.391978455069e+01 3.238850891908e+01 
4.421338366693e+01 3.237141394932e+01 
4.424212816667e+01 3.238818319363e+01 
4.453572728292e+01 3.237106511848e+01 
4.456124834602e+01 3.238786006135e+01 
4.485484746227e+01 3.237071893891e+01 
4.487717732414e+01 3.238753956940e+01 
4.517077644038e+01 3.237037547945e+01 
4.518994701149e+01 3.238722176079e+01 
4.548354612774e+01 3.237003480173e+01 
4.549958900268e+01 3.238690667451e+01 
4.579318811893e+01 3.236969696073e+01 
4.580613457490e+01 3.238659434574e+01 
4.609973369114e+01 3.236936200521e+01 
4.610961468910e+01 3.238628480593e+01 
4.640321380534e+01 3.236902997816e+01 
4.641006000147e+01 3.238597808305e+01 
4.670365911771e+01 3.236870091726e+01 
4.670750086168e+01 3.238567420170e+01 
4.700109997793e+01 3.236837485524e+01 
4.700196731387e+01 3.238537318333e+01 
4.729348910265e+01 3.238507504637e+01 
4.729556643011e+01 3.236805182025e+01 
4.758209567391e+01 3.238477980641e+01 
4.758708821889e+01 3.236773183622e+01 
4.786781617815e+01 3.238448747637e+01 
4.787569479015e+01 3.236741492319e+01 
4.815067947638e+01 3.238419806662e+01 
4.816141529439e+01 3.236710109759e+01 
4.843071414066e+01 3.238391158519e+01 
4.844427859262e+01 3.236679037249e+01 
4.870794845729e+01 3.238362803785e+01 
4.872431325690e+01 3.236648275794e+01 
4.898241043251e+01 3.238334742828e+01 
4.900154757353e+01 3.236617826112e+01 
4.925412779024e+01 3.238306975818e+01 
4.927600954875e+01 3.236587688660e+01 
4.952312797515e+01 3.238279502743e+01 
4.954772690648e+01 3.236557863655e+01 
4.978943815819e+01 3.238252323420e+01 
4.981672709139e+01 3.236528351093e+01 
5.005308523679e+01 3.238225437500e+01 
5.008303727443e+01 3.236499150763e+01 
5.031409584305e+01 3.238198844488e+01 
5.034668435304e+01 3.236470262270e+01 
5.057249634363e+01 3.238172543747e+01 
5.060769495929e+01 3.236441685041e+01 
5.082831284006e+01 3.238146534508e+01 
5.086609545987e+01 3.236413418347e+01 
5.108157117126e+01 3.238120815880e+01 
5.112191195631e+01 3.236385461312e+01 
5.133229691885e+01 3.238095386860e+01 
5.137517028750e+01 3.236357812925e+01 
5.158051540961e+01 3.238070246337e+01 
5.162589603509e+01 3.236330472052e+01 
5.182625171545e+01 3.238045393102e+01 
5.187411452585e+01 3.236303437446e+01 
5.206953065838e+01 3.238020825856e+01 
5.211985083169e+01 3.236276707755e+01 
5.231037681299e+01 3.237996543215e+01 
5.236312977462e+01 3.236250281535e+01 
5.254881450607e+01 3.237972543713e+01 
5.260397592923e+01 3.236224157251e+01 
5.278486782168e+01 3.237948825816e+01 
5.284241362232e+01 3.236198333293e+01 
5.301856060323e+01 3.237925387919e+01 
5.307846693793e+01 3.236172807975e+01 
5.324991645580e+01 3.237902228356e+01 
5.331215971947e+01 3.236147579548e+01 
5.347895875083e+01 3.237879345403e+01 
5.354351557204e+01 3.236122646201e+01 
5.370571062298e+01 3.237856737283e+01 
5.377255786707e+01 3.236098006070e+01 
5.393019497749e+01 3.237834402172e+01 
5.399930973922e+01 3.236073657241e+01 
5.415243448949e+01 3.237812338197e+01 
5.422379409374e+01 3.236049597757e+01 
5.437245160601e+01 3.237790543448e+01 
5.444603360573e+01 3.236025825619e+01 
5.459026855051e+01 3.237769015975e+01 
5.466605072225e+01 3.236002338794e+01 
5.480590732476e+01 3.237747753793e+01 
5.488386766676e+01 3.235979135217e+01 
5.501938971062e+01 3.237726754888e+01 
5.509950644101e+01 3.235956212792e+01 
5.523073727185e+01 3.237706017214e+01 
5.531298882686e+01 3.235933569401e+01 
5.543997135845e+01 3.237685538702e+01 
5.552433638809e+01 3.235911202902e+01 
5.564711310573e+01 3.237665317258e+01 
5.573357047469e+01 3.235889111134e+01 
5.585218343596e+01 3.237645350766e+01 
5.594071222197e+01 3.235867291918e+01 
5.605520306265e+01 3.237625637094e+01 
5.614578255221e+01 3.235845743062e+01 
5.625619249204e+01 3.237606174089e+01 
5.634880217890e+01 3.235824462362e+01 
5.645517202731e+01 3.237586959586e+01 
5.654979160829e+01 3.235803447603e+01 
5.665216176734e+01 3.237567991405e+01 
5.674877114355e+01 3.235782696562e+01 
5.684718161086e+01 3.237549267355e+01 
5.694576088358e+01 3.235762207010e+01 
5.704025125784e+01 3.237530785235e+01 
5.714078072711e+01 3.235741976711e+01 
5.723139020826e+01 3.237512542836e+01 
5.733385037408e+01 3.235722003428e+01 
5.742061776845e+01 3.237494537940e+01 
5.752498932450e+01 3.235702284921e+01 
5.760795305269e+01 3.237476768324e+01 
5.771421688469e+01 3.235682818950e+01 
5.779341498429e+01 3.237459231760e+01 
5.790155216894e+01 3.235663603272e+01 
5.797702229676e+01 3.237441926016e+01 
5.808701410053e+01 3.235644635650e+01 
5.815879353503e+01 3.237424848859e+01 
5.827062141300e+01 3.235625913846e+01 
5.833874705922e+01 3.237407998050e+01 
5.845239265127e+01 3.235607435626e+01 
5.851690104827e+01 3.237391371355e+01 
5.863234617546e+01 3.235589198761e+01 
5.869327349844e+01 3.237374966534e+01 
5.881050016452e+01 3.235571201025e+01 
5.886788222424e+01 3.237358781352e+01 
5.898687261468e+01 3.235553440198e+01 
5.904074486216e+01 3.237342813575e+01 
5.916148134049e+01 3.235535914065e+01 
5.921187887412e+01 3.237327060968e+01 
5.933434397840e+01 3.235518620419e+01 
5.938130154579e+01 3.237311521303e+01 
5.950547799036e+01 3.235501557059e+01 
5.954902999011e+01 3.237296192353e+01 
5.967490066203e+01 3.235484721791e+01 
5.971508115073e+01 3.237281071896e+01 
5.984262910636e+01 3.235468112428e+01 
5.987947180015e+01 3.237266157712e+01 
6.000868026697e+01 3.235451726793e+01 
6.004221854318e+01 3.237251447591e+01 
6.017307091640e+01 3.235435562713e+01 
6.020333781761e+01 3.237236939324e+01 
6.033581765942e+01 3.235419618027e+01 
6.036284590023e+01 3.237222630710e+01 
6.049693693385e+01 3.235403890581e+01 
6.052075890212e+01 3.237208519554e+01 
6.065644501647e+01 3.235388378231e+01 
6.067709277209e+01 3.237194603668e+01 
6.081435801836e+01 3.235373078838e+01 
6.083186330500e+01 3.237180880870e+01 
6.097069188834e+01 3.235357990277e+01 
6.098508613447e+01 3.237167348987e+01 
6.112546242124e+01 3.235343110426e+01 
6.113677673612e+01 3.237154005853e+01 
6.127868525072e+01 3.235328437177e+01 
6.128695043064e+01 3.237140849311e+01 
6.143037585236e+01 3.235313968426e+01 
6.143562238696e+01 3.237127877213e+01 
6.158054954689e+01 3.235299702083e+01 
6.158280762258e+01 3.237115087417e+01 
6.172852100670e+01 3.237102477793e+01 
6.172922150320e+01 3.235285636062e+01 
6.187277725787e+01 3.237090046219e+01 
6.187640673882e+01 3.235271768289e+01 
6.201559094448e+01 3.237077790584e+01 
6.202212012294e+01 3.235258096695e+01 
6.215697649551e+01 3.237065708786e+01 
6.216637637411e+01 3.235244619223e+01 
6.229694819286e+01 3.237053798733e+01 
6.230919006072e+01 3.235231333821e+01 
6.243552017177e+01 3.237042058344e+01 
6.245057561175e+01 3.235218238449e+01 
6.257270643150e+01 3.237030485549e+01 
6.259054730910e+01 3.235205331070e+01 
6.270852083021e+01 3.237019078289e+01 
6.272911928801e+01 3.235192609660e+01 
6.284297708258e+01 3.237007834516e+01 
6.286630554774e+01 3.235180072199e+01 
6.297608877054e+01 3.236996752195e+01 
6.300211994645e+01 3.235167716677e+01 
6.310786934321e+01 3.236985829300e+01 
6.313657619883e+01 3.235155541089e+01 
6.323833211180e+01 3.236975063819e+01 
6.326968788679e+01 3.235143543440e+01 
6.336749025240e+01 3.236964453754e+01 
6.340146845945e+01 3.235131721739e+01 
6.349535681119e+01 3.236953997116e+01 
6.353193122804e+01 3.235120074004e+01 
6.362194470445e+01 3.236943691931e+01 
6.366108936864e+01 3.235108598261e+01 
6.374726671859e+01 3.236933536238e+01 
6.378895592743e+01 3.235097292539e+01 
6.387133551268e+01 3.236923528089e+01 
6.391554382070e+01 3.235086154876e+01 
6.399416361842e+01 3.236913665551e+01 
6.404086583483e+01 3.235075183317e+01 
6.411576344268e+01 3.236903946703e+01 
6.416493462892e+01 3.235064375911e+01 
6.423614726998e+01 3.236894369638e+01 
6.428776273467e+01 3.235053730715e+01 
6.435532725971e+01 3.236884932466e+01 
6.440936255893e+01 3.235043245793e+01 
6.447331544866e+01 3.236875633309e+01 
6.452974638623e+01 3.235032919211e+01 
6.459012375603e+01 3.236866470305e+01 
6.464892637596e+01 3.235022749047e+01 
6.470576398056e+01 3.236857441607e+01 
6.476691456491e+01 3.235012733379e+01 
6.482024780298e+01 3.236848545383e+01 
6.488372287227e+01 3.235002870297e+01 
6.493358678571e+01 3.236839779818e+01 
6.499936309680e+01 3.234993157892e+01 
6.504579237786e+01 3.236831143110e+01 
6.511384691922e+01 3.234983594265e+01 
6.515687591485e+01 3.236822633476e+01 
6.522718590195e+01 3.234974177521e+01 
6.526684861549e+01 3.236814249148e+01 
6.533939149411e+01 3.234964905772e+01 
6.537572158952e+01 3.236805988373e+01 
6.545047503109e+01 3.234955777139e+01 
6.548350583456e+01 3.236797849418e+01 
6.556044773173e+01 3.234946789745e+01 
6.559021223576e+01 3.236789830563e+01 
6.566932070576e+01 3.234937941726e+01 
6.569585157322e+01 3.236781930106e+01 
6.577710495081e+01 3.234929231220e+01 
6.580043451890e+01 3.236774146364e+01 
6.588381135200e+01 3.234920656376e+01 
6.590397163356e+01 3.236766477670e+01 
6.598945068947e+01 3.234912215350e+01 
6.600647337680e+01 3.236758922373e+01 
6.609403363514e+01 3.234903906306e+01 
6.610795010383e+01 3.236751478841e+01 
6.619757074980e+01 3.234895727420e+01 
6.620841206241e+01 3.236744145459e+01 
6.630007249304e+01 3.234887676874e+01 
6.630786940275e+01 3.236736920628e+01 
6.640154922008e+01 3.234879752860e+01 
6.640633217165e+01 3.236729802769e+01 
6.650201117865e+01 3.234871953584e+01 
6.650381031199e+01 3.236722790319e+01 
6.660031366998e+01 3.236715881733e+01 
6.660146851899e+01 3.234864277260e+01 
6.669585199445e+01 3.236709075483e+01 
6.669993128789e+01 3.234856722116e+01 
6.679043493627e+01 3.236702370058e+01 
6.679740942824e+01 3.234849286391e+01 
6.688407204763e+01 3.236695763966e+01 
6.689391278622e+01 3.234841968340e+01 
6.697677278665e+01 3.236689255729e+01 
6.698945111069e+01 3.234834766230e+01 
6.706854651922e+01 3.236682843889e+01 
6.708403405251e+01 3.234827678346e+01 
6.715940251569e+01 3.236676527003e+01 
6.717767116387e+01 3.234820702986e+01 
6.724934995273e+01 3.236670303644e+01 
6.727037190289e+01 3.234813838468e+01 
6.733839791519e+01 3.236664172402e+01 
6.736214563547e+01 3.234807083128e+01 
6.742655539796e+01 3.236658131884e+01 
6.745300163194e+01 3.234800435320e+01 
6.751383130511e+01 3.236652180710e+01 
6.754294906897e+01 3.234793893422e+01 
6.760023445178e+01 3.236646317518e+01 
6.763199703143e+01 3.234787455831e+01 
6.768577356849e+01 3.236640540957e+01 
6.772015451420e+01 3.234781120968e+01 
6.777045729502e+01 3.236634849694e+01 
6.780743042135e+01 3.234774887279e+01 
6.785429418227e+01 3.236629242407e+01 
6.789383356803e+01 3.234768753238e+01 
6.793729269920e+01 3.236623717789e+01 
6.797937268473e+01 3.234762717342e+01 
6.801946123184e+01 3.236618274545e+01 
6.806405641126e+01 3.234756778120e+01 
6.810080807978e+01 3.236612911392e+01 
6.814789329852e+01 3.234750934132e+01 
6.818134146049e+01 3.236607627057e+01 
6.823089181545e+01 3.234745183969e+01 
6.826106950834e+01 3.236602420281e+01 
6.831306034808e+01 3.234739526255e+01 
6.834000027365e+01 3.236597289812e+01 
6.839440719602e+01 3.234733959651e+01 
6.841814172956e+01 3.236592234409e+01 
6.847494057674e+01 3.234728482852e+01 
6.849550177098e+01 3.236587252839e+01 
6.855466862458e+01 3.234723094596e+01 
6.857208821357e+01 3.236582343875e+01 
6.863359938989e+01 3.234717793659e+01 
6.864790879268e+01 3.236577506299e+01 
6.871174084580e+01 3.234712578858e+01 
6.872297116500e+01 3.236572738898e+01 
6.878910088722e+01 3.234707449057e+01 
6.879728291266e+01 3.236568040464e+01 
6.886568732981e+01 3.234702403164e+01 
6.887085154477e+01 3.236563409793e+01 
6.894150790893e+01 3.234697440135e+01 
6.901657028125e+01 3.234692558976e+01 
6.909088202891e+01 3.234687758745e+01 
6.916445066101e+01 3.234683038550e+01 
