 TITLE = "Profiles along polylines"
 VARIABLES = "DIST" "HEAD" 
 ZONE T="TIME=0.000000000000e+00"
9.684157475003e-01 0.000000000000e+00 
9.930038172430e-01 0.000000000000e+00 
1.017666265876e+00 0.000000000000e+00 
1.042403319523e+00 0.000000000000e+00 
1.391248691766e+00 0.000000000000e+00 
1.415836761509e+00 0.000000000000e+00 
1.440499210141e+00 0.000000000000e+00 
1.465236263788e+00 0.000000000000e+00 
1.809853308905e+00 0.000000000000e+00 
1.834441378648e+00 0.000000000000e+00 
1.859103827280e+00 0.000000000000e+00 
1.883840880927e+00 0.000000000000e+00 
2.224271878774e+00 0.000000000000e+00 
2.248859948517e+00 0.000000000000e+00 
2.273522397150e+00 0.000000000000e+00 
2.298259450797e+00 0.000000000000e+00 
2.634546262794e+00 0.000000000000e+00 
2.659134332536e+00 0.000000000000e+00 
2.683796781169e+00 0.000000000000e+00 
2.708533834816e+00 0.000000000000e+00 
3.040717904446e+00 0.000000000000e+00 
3.065305974189e+00 0.000000000000e+00 
3.089968422822e+00 0.000000000000e+00 
3.114705476469e+00 0.000000000000e+00 
3.442827829868e+00 0.000000000000e+00 
3.467415899611e+00 0.000000000000e+00 
3.492078348244e+00 0.000000000000e+00 
3.516815401891e+00 0.000000000000e+00 
3.840916656117e+00 0.000000000000e+00 
3.865504725860e+00 0.000000000000e+00 
3.890167174492e+00 0.000000000000e+00 
3.914904228139e+00 0.000000000000e+00 
4.235024594130e+00 0.000000000000e+00 
4.259612663872e+00 0.000000000000e+00 
4.284275112505e+00 0.000000000000e+00 
4.309012166152e+00 0.000000000000e+00 
4.625191451611e+00 0.000000000000e+00 
4.649779521354e+00 0.000000000000e+00 
4.674441969986e+00 0.000000000000e+00 
4.699179023633e+00 0.000000000000e+00 
5.011456638470e+00 0.000000000000e+00 
5.036044708213e+00 0.000000000000e+00 
5.060707156846e+00 0.000000000000e+00 
5.085444210493e+00 0.000000000000e+00 
5.393859174762e+00 0.000000000000e+00 
5.418447244505e+00 0.000000000000e+00 
5.443109693138e+00 0.000000000000e+00 
5.467846746785e+00 0.000000000000e+00 
5.772437685400e+00 0.000000000000e+00 
5.797025755143e+00 0.000000000000e+00 
5.821688203776e+00 0.000000000000e+00 
5.846425257423e+00 0.000000000000e+00 
6.147230410745e+00 0.000000000000e+00 
6.171818480488e+00 0.000000000000e+00 
6.196480929120e+00 0.000000000000e+00 
6.221217982767e+00 0.000000000000e+00 
6.518275208890e+00 0.000000000000e+00 
6.542863278633e+00 0.000000000000e+00 
6.567525727266e+00 0.000000000000e+00 
6.592262780913e+00 0.000000000000e+00 
6.885609558262e+00 0.000000000000e+00 
6.910197628005e+00 0.000000000000e+00 
6.934860076638e+00 0.000000000000e+00 
6.959597130285e+00 0.000000000000e+00 
7.249270565023e+00 0.000000000000e+00 
7.273858634766e+00 0.000000000000e+00 
7.298521083399e+00 0.000000000000e+00 
7.323258137046e+00 0.000000000000e+00 
7.609294960199e+00 0.000000000000e+00 
7.633883029942e+00 0.000000000000e+00 
7.658545478575e+00 0.000000000000e+00 
7.683282532222e+00 0.000000000000e+00 
7.965719112311e+00 0.000000000000e+00 
7.990307182054e+00 0.000000000000e+00 
8.014969630687e+00 0.000000000000e+00 
8.039706684334e+00 0.000000000000e+00 
8.318579024171e+00 0.000000000000e+00 
8.343167093914e+00 0.000000000000e+00 
8.367829542547e+00 0.000000000000e+00 
8.392566596194e+00 0.000000000000e+00 
8.667910337643e+00 0.000000000000e+00 
8.692498407386e+00 0.000000000000e+00 
8.717160856019e+00 0.000000000000e+00 
8.741897909666e+00 0.000000000000e+00 
9.013748338134e+00 0.000000000000e+00 
9.038336407877e+00 0.000000000000e+00 
9.062998856510e+00 0.000000000000e+00 
9.087735910157e+00 0.000000000000e+00 
9.356127956569e+00 0.000000000000e+00 
9.380716026311e+00 0.000000000000e+00 
9.405378474944e+00 0.000000000000e+00 
9.430115528591e+00 0.000000000000e+00 
9.695083779014e+00 0.000000000000e+00 
9.719671848757e+00 0.000000000000e+00 
9.744334297390e+00 0.000000000000e+00 
9.769071351037e+00 0.000000000000e+00 
1.003065004315e+01 0.000000000000e+00 
1.005523811289e+01 0.000000000000e+00 
1.007990056152e+01 0.000000000000e+00 
1.010463761517e+01 0.000000000000e+00 
1.036286064525e+01 0.000000000000e+00 
1.038744871500e+01 0.000000000000e+00 
1.041211116363e+01 0.000000000000e+00 
1.043684821728e+01 0.000000000000e+00 
1.069174914174e+01 0.000000000000e+00 
1.071633721148e+01 0.000000000000e+00 
1.074099966011e+01 0.000000000000e+00 
1.076573671376e+01 0.000000000000e+00 
1.101734875339e+01 0.000000000000e+00 
1.104193682313e+01 0.000000000000e+00 
1.106659927177e+01 0.000000000000e+00 
1.109133632541e+01 0.000000000000e+00 
1.133969236937e+01 0.000000000000e+00 
1.136428043912e+01 0.000000000000e+00 
1.138894288775e+01 0.000000000000e+00 
1.141367994140e+01 0.000000000000e+00 
1.165881254872e+01 0.000000000000e+00 
1.168340061847e+01 0.000000000000e+00 
1.170806306710e+01 0.000000000000e+00 
1.173280012075e+01 0.000000000000e+00 
1.197474152684e+01 0.000000000000e+00 
1.199932959658e+01 0.000000000000e+00 
1.202399204521e+01 0.000000000000e+00 
1.204872909886e+01 0.000000000000e+00 
1.228751121419e+01 0.000000000000e+00 
1.231209928393e+01 0.000000000000e+00 
1.233676173256e+01 0.000000000000e+00 
1.236149878621e+01 0.000000000000e+00 
1.259715320538e+01 0.000000000000e+00 
1.262174127512e+01 0.000000000000e+00 
1.264640372375e+01 0.000000000000e+00 
1.267114077740e+01 0.000000000000e+00 
1.290369877759e+01 0.000000000000e+00 
1.292828684734e+01 0.000000000000e+00 
1.295294929597e+01 0.000000000000e+00 
1.297768634962e+01 0.000000000000e+00 
1.320717889180e+01 0.000000000000e+00 
1.323176696154e+01 0.000000000000e+00 
1.325642941017e+01 0.000000000000e+00 
1.328116646382e+01 0.000000000000e+00 
1.350762420416e+01 0.000000000000e+00 
1.353221227391e+01 0.000000000000e+00 
1.355687472254e+01 0.000000000000e+00 
1.358161177618e+01 0.000000000000e+00 
1.380506506437e+01 0.000000000000e+00 
1.382965313412e+01 0.000000000000e+00 
1.385431558275e+01 0.000000000000e+00 
1.387905263640e+01 0.000000000000e+00 
1.409953151656e+01 0.000000000000e+00 
1.412411958630e+01 0.000000000000e+00 
1.414878203493e+01 0.000000000000e+00 
1.417351908858e+01 0.000000000000e+00 
1.439105330534e+01 0.000000000000e+00 
1.441564137508e+01 0.000000000000e+00 
1.444030382371e+01 0.000000000000e+00 
1.446504087736e+01 0.000000000000e+00 
1.467965987659e+01 0.000000000000e+00 
1.470424794634e+01 0.000000000000e+00 
1.472891039497e+01 0.000000000000e+00 
1.475364744862e+01 0.000000000000e+00 
1.496538038083e+01 0.000000000000e+00 
1.498996845058e+01 0.000000000000e+00 
1.501463089921e+01 0.000000000000e+00 
1.503936795286e+01 0.000000000000e+00 
1.524824367906e+01 0.000000000000e+00 
1.527283174881e+01 0.000000000000e+00 
1.529749419744e+01 0.000000000000e+00 
1.532223125109e+01 0.000000000000e+00 
1.552827834334e+01 0.000000000000e+00 
1.555286641308e+01 0.000000000000e+00 
1.557752886172e+01 0.000000000000e+00 
1.560226591536e+01 0.000000000000e+00 
1.580551265997e+01 0.000000000000e+00 
1.583010072972e+01 0.000000000000e+00 
1.585476317835e+01 0.000000000000e+00 
1.587950023200e+01 0.000000000000e+00 
1.607997463519e+01 0.000000000000e+00 
1.610456270493e+01 0.000000000000e+00 
1.612922515357e+01 0.000000000000e+00 
1.615396220721e+01 0.000000000000e+00 
1.635169199292e+01 0.000000000000e+00 
1.637628006266e+01 0.000000000000e+00 
1.640094251130e+01 0.000000000000e+00 
1.642567956494e+01 0.000000000000e+00 
1.662069217783e+01 0.000000000000e+00 
1.664528024758e+01 0.000000000000e+00 
1.666994269621e+01 0.000000000000e+00 
1.669467974986e+01 0.000000000000e+00 
1.688700236087e+01 0.000000000000e+00 
1.691159043061e+01 0.000000000000e+00 
1.693625287924e+01 0.000000000000e+00 
1.696098993289e+01 0.000000000000e+00 
1.715064943947e+01 0.000000000000e+00 
1.717523750922e+01 0.000000000000e+00 
1.719989995785e+01 0.000000000000e+00 
1.722463701150e+01 0.000000000000e+00 
1.741166004572e+01 0.000000000000e+00 
1.743624811547e+01 0.000000000000e+00 
1.746091056410e+01 0.000000000000e+00 
1.748564761775e+01 0.000000000000e+00 
1.767006054631e+01 0.000000000000e+00 
1.769464861605e+01 0.000000000000e+00 
1.771931106469e+01 0.000000000000e+00 
1.774404811833e+01 0.000000000000e+00 
1.792587704274e+01 0.000000000000e+00 
1.795046511248e+01 0.000000000000e+00 
1.797512756112e+01 0.000000000000e+00 
1.799986461476e+01 0.000000000000e+00 
1.817913537394e+01 0.000000000000e+00 
1.820372344368e+01 0.000000000000e+00 
1.822838589231e+01 0.000000000000e+00 
1.825312294596e+01 0.000000000000e+00 
1.842986112152e+01 0.000000000000e+00 
1.845444919127e+01 0.000000000000e+00 
1.847911163990e+01 0.000000000000e+00 
1.850384869355e+01 0.000000000000e+00 
1.867807961229e+01 0.000000000000e+00 
1.870266768203e+01 0.000000000000e+00 
1.872733013067e+01 0.000000000000e+00 
1.875206718431e+01 0.000000000000e+00 
1.892381591813e+01 0.000000000000e+00 
1.894840398787e+01 0.000000000000e+00 
1.897306643650e+01 0.000000000000e+00 
1.899780349015e+01 0.000000000000e+00 
1.916709486106e+01 0.000000000000e+00 
1.919168293080e+01 0.000000000000e+00 
1.921634537944e+01 0.000000000000e+00 
1.924108243308e+01 0.000000000000e+00 
1.940794101567e+01 0.000000000000e+00 
1.943252908541e+01 0.000000000000e+00 
1.945719153404e+01 0.000000000000e+00 
1.948192858769e+01 0.000000000000e+00 
1.964637870876e+01 0.000000000000e+00 
1.967096677850e+01 0.000000000000e+00 
1.969562922713e+01 0.000000000000e+00 
1.972036628078e+01 0.000000000000e+00 
1.988243202436e+01 0.000000000000e+00 
1.990702009411e+01 0.000000000000e+00 
1.993168254274e+01 0.000000000000e+00 
1.995641959639e+01 0.000000000000e+00 
2.011612480591e+01 0.000000000000e+00 
2.014071287566e+01 0.000000000000e+00 
2.016537532429e+01 0.000000000000e+00 
2.019011237794e+01 0.000000000000e+00 
2.034748065848e+01 0.000000000000e+00 
2.037206872823e+01 0.000000000000e+00 
2.039673117686e+01 0.000000000000e+00 
2.042146823051e+01 0.000000000000e+00 
2.057652295351e+01 0.000000000000e+00 
2.060111102325e+01 0.000000000000e+00 
2.062577347189e+01 0.000000000000e+00 
2.065051052553e+01 0.000000000000e+00 
2.080327482566e+01 0.000000000000e+00 
2.082786289541e+01 0.000000000000e+00 
2.085252534404e+01 0.000000000000e+00 
2.087726239769e+01 0.000000000000e+00 
2.102775918018e+01 0.000000000000e+00 
2.105234724992e+01 0.000000000000e+00 
2.107700969855e+01 0.000000000000e+00 
2.110174675220e+01 0.000000000000e+00 
2.124999869218e+01 0.000000000000e+00 
2.127458676192e+01 0.000000000000e+00 
2.129924921055e+01 0.000000000000e+00 
2.132398626420e+01 0.000000000000e+00 
2.147001580870e+01 0.000000000000e+00 
2.149460387844e+01 0.000000000000e+00 
2.151926632707e+01 0.000000000000e+00 
2.154400338072e+01 0.000000000000e+00 
2.168783275320e+01 0.000000000000e+00 
2.171242082295e+01 0.000000000000e+00 
2.173708327158e+01 0.000000000000e+00 
2.176182032523e+01 0.000000000000e+00 
2.190347152745e+01 0.000000000000e+00 
2.192805959720e+01 0.000000000000e+00 
2.195272204583e+01 0.000000000000e+00 
2.197745909948e+01 0.000000000000e+00 
2.211695391331e+01 0.000000000000e+00 
2.214154198305e+01 0.000000000000e+00 
2.216620443168e+01 0.000000000000e+00 
2.219094148533e+01 0.000000000000e+00 
2.232830147454e+01 0.000000000000e+00 
2.235288954428e+01 0.000000000000e+00 
2.237755199291e+01 0.000000000000e+00 
2.240228904656e+01 0.000000000000e+00 
2.253753556114e+01 0.000000000000e+00 
2.256212363088e+01 0.000000000000e+00 
2.258678607951e+01 0.000000000000e+00 
2.261152313316e+01 0.000000000000e+00 
2.274467730842e+01 0.000000000000e+00 
2.276926537816e+01 0.000000000000e+00 
2.279392782679e+01 0.000000000000e+00 
2.281866488044e+01 0.000000000000e+00 
2.294974763866e+01 0.000000000000e+00 
2.297433570840e+01 0.000000000000e+00 
2.299899815703e+01 0.000000000000e+00 
2.302373521068e+01 0.000000000000e+00 
2.315276726535e+01 0.000000000000e+00 
2.317735533509e+01 0.000000000000e+00 
2.320201778372e+01 0.000000000000e+00 
2.322675483737e+01 0.000000000000e+00 
2.335375669474e+01 0.000000000000e+00 
2.337834476448e+01 0.000000000000e+00 
2.340300721311e+01 0.000000000000e+00 
2.342774426676e+01 0.000000000000e+00 
2.355273623000e+01 0.000000000000e+00 
2.357732429975e+01 0.000000000000e+00 
2.360198674838e+01 0.000000000000e+00 
2.362672380203e+01 0.000000000000e+00 
2.374972597003e+01 0.000000000000e+00 
2.377431403978e+01 0.000000000000e+00 
2.379897648841e+01 0.000000000000e+00 
2.382371354206e+01 0.000000000000e+00 
2.394474581356e+01 0.000000000000e+00 
2.396933388330e+01 0.000000000000e+00 
2.399399633194e+01 0.000000000000e+00 
2.401873338558e+01 0.000000000000e+00 
2.413781546054e+01 0.000000000000e+00 
2.416240353028e+01 0.000000000000e+00 
2.418706597891e+01 0.000000000000e+00 
2.421180303256e+01 0.000000000000e+00 
2.432895441096e+01 0.000000000000e+00 
2.435354248070e+01 0.000000000000e+00 
2.437820492934e+01 0.000000000000e+00 
2.440294198298e+01 0.000000000000e+00 
2.451818197114e+01 0.000000000000e+00 
2.454277004089e+01 0.000000000000e+00 
2.456743248952e+01 0.000000000000e+00 
2.459216954317e+01 0.000000000000e+00 
2.470551725539e+01 0.000000000000e+00 
2.473010532514e+01 0.000000000000e+00 
2.475476777377e+01 0.000000000000e+00 
2.477950482742e+01 0.000000000000e+00 
2.489097918699e+01 0.000000000000e+00 
2.491556725673e+01 0.000000000000e+00 
2.494022970537e+01 0.000000000000e+00 
2.496496675901e+01 0.000000000000e+00 
2.507458649946e+01 0.000000000000e+00 
2.509917456920e+01 0.000000000000e+00 
2.512383701784e+01 0.000000000000e+00 
2.514857407148e+01 0.000000000000e+00 
2.525635773773e+01 0.000000000000e+00 
2.528094580747e+01 0.000000000000e+00 
2.530560825611e+01 0.000000000000e+00 
2.533034530975e+01 0.000000000000e+00 
2.543631126192e+01 0.000000000000e+00 
2.546089933166e+01 0.000000000000e+00 
2.548556178029e+01 0.000000000000e+00 
2.551029883394e+01 0.000000000000e+00 
2.561446525098e+01 0.000000000000e+00 
2.563905332072e+01 0.000000000000e+00 
2.566371576935e+01 0.000000000000e+00 
2.568845282300e+01 0.000000000000e+00 
2.579083770114e+01 0.000000000000e+00 
2.581542577088e+01 0.000000000000e+00 
2.584008821951e+01 0.000000000000e+00 
2.586482527316e+01 0.000000000000e+00 
2.596544642695e+01 0.000000000000e+00 
2.599003449669e+01 0.000000000000e+00 
2.601469694532e+01 0.000000000000e+00 
2.603943399897e+01 0.000000000000e+00 
2.613830906486e+01 0.000000000000e+00 
2.616289713461e+01 0.000000000000e+00 
2.618755958324e+01 0.000000000000e+00 
2.621229663689e+01 0.000000000000e+00 
2.630944307682e+01 0.000000000000e+00 
2.633403114656e+01 0.000000000000e+00 
2.635869359520e+01 0.000000000000e+00 
2.638343064884e+01 0.000000000000e+00 
2.647886574849e+01 0.000000000000e+00 
2.650345381823e+01 0.000000000000e+00 
2.652811626687e+01 0.000000000000e+00 
2.655285332051e+01 0.000000000000e+00 
2.664659419282e+01 0.000000000000e+00 
2.667118226256e+01 0.000000000000e+00 
2.669584471120e+01 0.000000000000e+00 
2.672058176484e+01 0.000000000000e+00 
2.681264535344e+01 0.000000000000e+00 
2.683723342318e+01 0.000000000000e+00 
2.686189587181e+01 0.000000000000e+00 
2.688663292546e+01 0.000000000000e+00 
2.697703600286e+01 0.000000000000e+00 
2.700162407261e+01 0.000000000000e+00 
2.702628652124e+01 0.000000000000e+00 
2.705102357489e+01 0.000000000000e+00 
2.713978274589e+01 0.000000000000e+00 
2.716437081563e+01 0.000000000000e+00 
2.718903326426e+01 0.000000000000e+00 
2.721377031791e+01 0.000000000000e+00 
2.730090202032e+01 0.000000000000e+00 
2.732549009006e+01 0.000000000000e+00 
2.735015253869e+01 0.000000000000e+00 
2.737488959234e+01 0.000000000000e+00 
2.746041010294e+01 0.000000000000e+00 
2.748499817268e+01 0.000000000000e+00 
2.750966062131e+01 0.000000000000e+00 
2.753439767496e+01 0.000000000000e+00 
2.761832310483e+01 0.000000000000e+00 
2.764291117457e+01 0.000000000000e+00 
2.766757362321e+01 0.000000000000e+00 
2.769231067685e+01 0.000000000000e+00 
2.777465697480e+01 0.000000000000e+00 
2.779924504455e+01 0.000000000000e+00 
2.782390749318e+01 0.000000000000e+00 
2.784864454683e+01 0.000000000000e+00 
2.792942750771e+01 0.000000000000e+00 
2.795401557746e+01 0.000000000000e+00 
2.797867802609e+01 0.000000000000e+00 
2.800341507974e+01 0.000000000000e+00 
2.808265033718e+01 0.000000000000e+00 
2.810723840693e+01 0.000000000000e+00 
2.813190085556e+01 0.000000000000e+00 
2.815663790921e+01 0.000000000000e+00 
2.823434093883e+01 0.000000000000e+00 
2.825892900857e+01 0.000000000000e+00 
2.828359145721e+01 0.000000000000e+00 
2.830832851085e+01 0.000000000000e+00 
2.838451463336e+01 0.000000000000e+00 
2.840910270310e+01 0.000000000000e+00 
2.843376515173e+01 0.000000000000e+00 
2.845850220538e+01 0.000000000000e+00 
2.853318658967e+01 0.000000000000e+00 
2.855777465941e+01 0.000000000000e+00 
2.858243710805e+01 0.000000000000e+00 
2.860717416169e+01 0.000000000000e+00 
2.868037182529e+01 0.000000000000e+00 
2.870495989503e+01 0.000000000000e+00 
2.872962234367e+01 0.000000000000e+00 
2.875435939731e+01 0.000000000000e+00 
2.882608520941e+01 0.000000000000e+00 
2.885067327915e+01 0.000000000000e+00 
2.887533572778e+01 0.000000000000e+00 
2.890007278143e+01 0.000000000000e+00 
2.897034146058e+01 0.000000000000e+00 
2.899492953032e+01 0.000000000000e+00 
2.901959197896e+01 0.000000000000e+00 
2.904432903260e+01 0.000000000000e+00 
2.911315514720e+01 0.000000000000e+00 
2.913774321694e+01 0.000000000000e+00 
2.916240566557e+01 0.000000000000e+00 
2.918714271922e+01 0.000000000000e+00 
2.925454069822e+01 0.000000000000e+00 
2.927912876796e+01 0.000000000000e+00 
2.930379121660e+01 0.000000000000e+00 
2.932852827024e+01 0.000000000000e+00 
2.939451239557e+01 0.000000000000e+00 
2.941910046531e+01 0.000000000000e+00 
2.944376291395e+01 0.000000000000e+00 
2.946849996759e+01 0.000000000000e+00 
2.953308437449e+01 0.000000000000e+00 
2.955767244423e+01 0.000000000000e+00 
2.958233489286e+01 0.000000000000e+00 
2.960707194651e+01 0.000000000000e+00 
2.967027063422e+01 0.000000000000e+00 
2.969485870396e+01 0.000000000000e+00 
2.971952115259e+01 0.000000000000e+00 
2.974425820624e+01 0.000000000000e+00 
2.980608503292e+01 0.000000000000e+00 
2.983067310266e+01 0.000000000000e+00 
2.985533555130e+01 0.000000000000e+00 
2.988007260494e+01 0.000000000000e+00 
2.994054128530e+01 0.000000000000e+00 
2.996512935504e+01 0.000000000000e+00 
2.998979180368e+01 0.000000000000e+00 
3.001452885732e+01 0.000000000000e+00 
3.007365297326e+01 0.000000000000e+00 
3.009824104300e+01 0.000000000000e+00 
3.012290349164e+01 0.000000000000e+00 
3.014764054528e+01 0.000000000000e+00 
3.020543354592e+01 0.000000000000e+00 
3.023002161567e+01 0.000000000000e+00 
3.025468406430e+01 0.000000000000e+00 
3.027942111795e+01 0.000000000000e+00 
3.033589631452e+01 0.000000000000e+00 
3.036048438426e+01 0.000000000000e+00 
3.038514683290e+01 0.000000000000e+00 
3.040988388654e+01 0.000000000000e+00 
3.046505445512e+01 0.000000000000e+00 
3.048964252486e+01 0.000000000000e+00 
3.051430497349e+01 0.000000000000e+00 
3.053904202714e+01 0.000000000000e+00 
3.059292101391e+01 0.000000000000e+00 
3.061750908365e+01 0.000000000000e+00 
3.064217153228e+01 0.000000000000e+00 
3.066690858593e+01 0.000000000000e+00 
3.071950890717e+01 0.000000000000e+00 
3.074409697692e+01 0.000000000000e+00 
3.076875942555e+01 0.000000000000e+00 
3.079349647920e+01 0.000000000000e+00 
3.084483092131e+01 0.000000000000e+00 
3.086941899105e+01 0.000000000000e+00 
3.089408143969e+01 0.000000000000e+00 
3.091881849333e+01 0.000000000000e+00 
3.096889971540e+01 0.000000000000e+00 
3.099348778514e+01 0.000000000000e+00 
3.101815023378e+01 0.000000000000e+00 
3.104288728742e+01 0.000000000000e+00 
3.109172782114e+01 0.000000000000e+00 
3.111631589089e+01 0.000000000000e+00 
3.114097833952e+01 0.000000000000e+00 
3.116571539317e+01 0.000000000000e+00 
3.121332764540e+01 0.000000000000e+00 
3.123791571515e+01 0.000000000000e+00 
3.126257816378e+01 0.000000000000e+00 
3.128731521743e+01 0.000000000000e+00 
3.133371147270e+01 0.000000000000e+00 
3.135829954245e+01 0.000000000000e+00 
3.138296199108e+01 0.000000000000e+00 
3.140769904473e+01 0.000000000000e+00 
3.145289146244e+01 0.000000000000e+00 
3.147747953218e+01 0.000000000000e+00 
3.150214198081e+01 0.000000000000e+00 
3.152687903446e+01 0.000000000000e+00 
3.157087965139e+01 0.000000000000e+00 
3.159546772113e+01 0.000000000000e+00 
3.162013016976e+01 0.000000000000e+00 
3.164486722341e+01 0.000000000000e+00 
3.168768795875e+01 0.000000000000e+00 
3.171227602849e+01 0.000000000000e+00 
3.173693847712e+01 0.000000000000e+00 
3.176167553077e+01 0.000000000000e+00 
3.180332818328e+01 0.000000000000e+00 
3.182791625302e+01 0.000000000000e+00 
3.185257870165e+01 0.000000000000e+00 
3.187731575530e+01 0.000000000000e+00 
3.191781200570e+01 0.000000000000e+00 
3.194240007544e+01 0.000000000000e+00 
3.196706252408e+01 0.000000000000e+00 
3.199179957772e+01 0.000000000000e+00 
3.203115098843e+01 0.000000000000e+00 
3.205573905817e+01 0.000000000000e+00 
3.208040150681e+01 0.000000000000e+00 
3.210513856045e+01 0.000000000000e+00 
3.214335658059e+01 0.000000000000e+00 
3.216794465033e+01 0.000000000000e+00 
3.219260709896e+01 0.000000000000e+00 
3.221734415261e+01 0.000000000000e+00 
3.225444011757e+01 0.000000000000e+00 
3.227902818731e+01 0.000000000000e+00 
3.230369063594e+01 0.000000000000e+00 
3.232842768959e+01 0.000000000000e+00 
3.236441281821e+01 0.000000000000e+00 
3.238900088795e+01 0.000000000000e+00 
3.241366333658e+01 0.000000000000e+00 
3.243840039023e+01 0.000000000000e+00 
3.247328579224e+01 0.000000000000e+00 
3.249787386199e+01 0.000000000000e+00 
3.252253631062e+01 0.000000000000e+00 
3.254727336427e+01 0.000000000000e+00 
3.258107003729e+01 0.000000000000e+00 
3.260565810703e+01 0.000000000000e+00 
3.263032055566e+01 0.000000000000e+00 
3.265505760931e+01 0.000000000000e+00 
3.268777643848e+01 0.000000000000e+00 
3.271236450823e+01 0.000000000000e+00 
3.273702695686e+01 0.000000000000e+00 
3.276176401051e+01 0.000000000000e+00 
3.279341577595e+01 0.000000000000e+00 
3.281800384569e+01 0.000000000000e+00 
3.284266629432e+01 0.000000000000e+00 
3.286740334797e+01 0.000000000000e+00 
3.289799872163e+01 0.000000000000e+00 
3.292258679137e+01 0.000000000000e+00 
3.294724924000e+01 0.000000000000e+00 
3.297198629365e+01 0.000000000000e+00 
3.300153583628e+01 0.000000000000e+00 
3.302612390603e+01 0.000000000000e+00 
3.305078635466e+01 0.000000000000e+00 
3.307552340831e+01 0.000000000000e+00 
3.310403757953e+01 0.000000000000e+00 
3.312862564927e+01 0.000000000000e+00 
3.315328809790e+01 0.000000000000e+00 
3.317802515155e+01 0.000000000000e+00 
3.320551430656e+01 0.000000000000e+00 
3.323010237630e+01 0.000000000000e+00 
3.325476482493e+01 0.000000000000e+00 
3.327950187858e+01 0.000000000000e+00 
3.330597626514e+01 0.000000000000e+00 
3.333056433488e+01 0.000000000000e+00 
3.335522678351e+01 0.000000000000e+00 
3.337996383716e+01 0.000000000000e+00 
3.340543360548e+01 0.000000000000e+00 
3.343002167522e+01 0.000000000000e+00 
3.345468412385e+01 0.000000000000e+00 
3.347942117750e+01 0.000000000000e+00 
3.350389637438e+01 0.000000000000e+00 
3.352848444412e+01 0.000000000000e+00 
3.355314689275e+01 0.000000000000e+00 
3.357788394640e+01 0.000000000000e+00 
3.360137451472e+01 0.000000000000e+00 
3.362596258446e+01 0.000000000000e+00 
3.365062503310e+01 0.000000000000e+00 
3.367536208674e+01 0.000000000000e+00 
3.369787787270e+01 0.000000000000e+00 
3.372246594245e+01 0.000000000000e+00 
3.374712839108e+01 0.000000000000e+00 
3.377186544473e+01 0.000000000000e+00 
3.379341619718e+01 0.000000000000e+00 
3.381800426692e+01 0.000000000000e+00 
3.384266671555e+01 0.000000000000e+00 
3.386740376920e+01 0.000000000000e+00 
3.388799913900e+01 0.000000000000e+00 
3.391258720874e+01 0.000000000000e+00 
3.393724965737e+01 0.000000000000e+00 
3.396198671102e+01 0.000000000000e+00 
3.398163625036e+01 0.000000000000e+00 
3.400622432010e+01 0.000000000000e+00 
3.403088676873e+01 0.000000000000e+00 
3.405562382238e+01 0.000000000000e+00 
3.407433698937e+01 0.000000000000e+00 
3.409892505912e+01 0.000000000000e+00 
3.412358750775e+01 0.000000000000e+00 
3.414832456140e+01 0.000000000000e+00 
3.416611072195e+01 0.000000000000e+00 
3.419069879169e+01 0.000000000000e+00 
3.421536124033e+01 0.000000000000e+00 
3.424009829397e+01 0.000000000000e+00 
3.425696671842e+01 0.000000000000e+00 
3.428155478816e+01 0.000000000000e+00 
3.430621723680e+01 0.000000000000e+00 
3.433095429044e+01 0.000000000000e+00 
3.434691415546e+01 0.000000000000e+00 
3.437150222520e+01 0.000000000000e+00 
3.439616467383e+01 0.000000000000e+00 
3.442090172748e+01 0.000000000000e+00 
3.443596211792e+01 0.000000000000e+00 
3.446055018766e+01 0.000000000000e+00 
3.448521263629e+01 0.000000000000e+00 
3.450994968994e+01 0.000000000000e+00 
3.452411960068e+01 0.000000000000e+00 
3.454870767043e+01 0.000000000000e+00 
3.457337011906e+01 0.000000000000e+00 
3.459810717271e+01 0.000000000000e+00 
3.461139550784e+01 0.000000000000e+00 
3.463598357758e+01 0.000000000000e+00 
3.466064602622e+01 0.000000000000e+00 
3.468538307986e+01 0.000000000000e+00 
3.469779865451e+01 0.000000000000e+00 
3.472238672426e+01 0.000000000000e+00 
3.474704917289e+01 0.000000000000e+00 
3.477178622653e+01 0.000000000000e+00 
3.478333777122e+01 0.000000000000e+00 
3.480792584096e+01 0.000000000000e+00 
3.483258828959e+01 0.000000000000e+00 
3.485732534324e+01 0.000000000000e+00 
3.486802149775e+01 0.000000000000e+00 
3.489260956749e+01 0.000000000000e+00 
3.491727201612e+01 0.000000000000e+00 
3.494200906977e+01 0.000000000000e+00 
3.495185838500e+01 0.000000000000e+00 
3.497644645475e+01 0.000000000000e+00 
3.500110890338e+01 0.000000000000e+00 
3.502584595703e+01 0.000000000000e+00 
3.503485690193e+01 0.000000000000e+00 
3.505944497168e+01 0.000000000000e+00 
3.508410742031e+01 0.000000000000e+00 
3.510884447396e+01 0.000000000000e+00 
3.511702543457e+01 0.000000000000e+00 
3.514161350431e+01 0.000000000000e+00 
3.516627595295e+01 0.000000000000e+00 
3.519101300659e+01 0.000000000000e+00 
3.519837228251e+01 0.000000000000e+00 
3.522296035225e+01 0.000000000000e+00 
3.524762280088e+01 0.000000000000e+00 
3.527235985453e+01 0.000000000000e+00 
3.527890566322e+01 0.000000000000e+00 
3.530349373297e+01 0.000000000000e+00 
3.532815618160e+01 0.000000000000e+00 
3.535289323525e+01 0.000000000000e+00 
3.535863371107e+01 0.000000000000e+00 
3.538322178082e+01 0.000000000000e+00 
3.540788422945e+01 0.000000000000e+00 
3.543262128309e+01 0.000000000000e+00 
3.543756447638e+01 0.000000000000e+00 
3.546215254612e+01 0.000000000000e+00 
3.548681499476e+01 0.000000000000e+00 
3.551155204840e+01 0.000000000000e+00 
3.551570593229e+01 0.000000000000e+00 
3.554029400203e+01 0.000000000000e+00 
3.556495645066e+01 0.000000000000e+00 
3.558969350431e+01 0.000000000000e+00 
3.559306597371e+01 0.000000000000e+00 
3.561765404345e+01 0.000000000000e+00 
3.564231649209e+01 0.000000000000e+00 
3.566705354573e+01 0.000000000000e+00 
3.566965241630e+01 0.000000000000e+00 
3.569424048604e+01 0.000000000000e+00 
3.571890293467e+01 0.000000000000e+00 
3.574363998832e+01 0.000000000000e+00 
3.574547299541e+01 0.000000000000e+00 
3.577006106516e+01 0.000000000000e+00 
3.579472351379e+01 0.000000000000e+00 
3.581946056744e+01 0.000000000000e+00 
3.582053536774e+01 0.000000000000e+00 
3.584512343748e+01 0.000000000000e+00 
3.586978588611e+01 0.000000000000e+00 
3.589452293976e+01 0.000000000000e+00 
3.589484711540e+01 0.000000000000e+00 
3.591943518514e+01 0.000000000000e+00 
3.594409763377e+01 0.000000000000e+00 
3.596841574750e+01 0.000000000000e+00 
3.596883468742e+01 0.000000000000e+00 
3.599300381724e+01 0.000000000000e+00 
3.601766626588e+01 0.000000000000e+00 
3.604240331952e+01 0.000000000000e+00 
 TITLE = "Profiles along polylines"
 VARIABLES = "DIST" "HEAD" 
 ZONE T="TIME=1.797693134862e+308"
9.684157475003e-01 3.442804600524e+01 
9.930038172430e-01 3.442771520177e+01 
1.017666265876e+00 3.442737508423e+01 
1.042403319523e+00 3.442702557267e+01 
1.391248691766e+00 3.442791644897e+01 
1.415836761509e+00 3.442758555676e+01 
1.440499210141e+00 3.442724535017e+01 
1.465236263788e+00 3.442689574927e+01 
1.809853308905e+00 3.442778969321e+01 
1.834441378648e+00 3.442745871339e+01 
1.859103827280e+00 3.442711841889e+01 
1.883840880927e+00 3.442676872976e+01 
2.224271878774e+00 3.442766568099e+01 
2.248859948517e+00 3.442733461469e+01 
2.273522397150e+00 3.442699423338e+01 
2.298259450797e+00 3.442664445711e+01 
2.634546262794e+00 3.442754435525e+01 
2.659134332536e+00 3.442721320359e+01 
2.683796781169e+00 3.442687273656e+01 
2.708533834816e+00 3.442652287423e+01 
3.040717904446e+00 3.442742566013e+01 
3.065305974189e+00 3.442709442419e+01 
3.089968422822e+00 3.442675387252e+01 
3.114705476469e+00 3.442640392520e+01 
3.442827829868e+00 3.442730954099e+01 
3.467415899611e+00 3.442697822185e+01 
3.492078348244e+00 3.442663758660e+01 
3.516815401891e+00 3.442628755533e+01 
3.840916656117e+00 3.442719594440e+01 
3.865504725860e+00 3.442686454311e+01 
3.890167174492e+00 3.442652382533e+01 
3.914904228139e+00 3.442617371114e+01 
4.235024594130e+00 3.442708481802e+01 
4.259612663872e+00 3.442675333564e+01 
4.284275112505e+00 3.442641253635e+01 
4.309012166152e+00 3.442606234026e+01 
4.625191451611e+00 3.442697611063e+01 
4.649779521354e+00 3.442664454817e+01 
4.674441969986e+00 3.442630366838e+01 
4.699179023633e+00 3.442595339138e+01 
5.011456638470e+00 3.442686977202e+01 
5.036044708213e+00 3.442653813049e+01 
5.060707156846e+00 3.442619717120e+01 
5.085444210493e+00 3.442584681427e+01 
5.393859174762e+00 3.442676575305e+01 
5.418447244505e+00 3.442643403343e+01 
5.443109693138e+00 3.442609299561e+01 
5.467846746785e+00 3.442574255973e+01 
5.772437685400e+00 3.442666400554e+01 
5.797025755143e+00 3.442633220882e+01 
5.821688203776e+00 3.442599109342e+01 
5.846425257423e+00 3.442564057953e+01 
6.147230410745e+00 3.442656448232e+01 
6.171818480488e+00 3.442623260944e+01 
6.196480929120e+00 3.442589141742e+01 
6.221217982767e+00 3.442554082646e+01 
6.518275208890e+00 3.442646713717e+01 
6.542863278633e+00 3.442613518907e+01 
6.567525727266e+00 3.442579392136e+01 
6.592262780913e+00 3.442544325424e+01 