 TITLE = "Profiles along polylines"
 VARIABLES = "DIST" "HEAD" 
 ZONE T="TIME=0.000000000000e+00"
4.950320757485e+00 0.000000000000e+00 
4.986954049356e+00 0.000000000000e+00 
5.023698156046e+00 0.000000000000e+00 
5.373153701751e+00 0.000000000000e+00 
5.409786993622e+00 0.000000000000e+00 
5.446531100312e+00 0.000000000000e+00 
5.791758318890e+00 0.000000000000e+00 
5.828391610761e+00 0.000000000000e+00 
5.865135717452e+00 0.000000000000e+00 
6.206176888760e+00 0.000000000000e+00 
6.242810180631e+00 0.000000000000e+00 
6.279554287322e+00 0.000000000000e+00 
6.616451272780e+00 0.000000000000e+00 
6.653084564651e+00 0.000000000000e+00 
6.689828671341e+00 0.000000000000e+00 
7.022622914433e+00 0.000000000000e+00 
7.059256206304e+00 0.000000000000e+00 
7.096000312994e+00 0.000000000000e+00 
7.424732839855e+00 0.000000000000e+00 
7.461366131726e+00 0.000000000000e+00 
7.498110238416e+00 0.000000000000e+00 
7.822821666104e+00 0.000000000000e+00 
7.859454957975e+00 0.000000000000e+00 
7.896199064665e+00 0.000000000000e+00 
8.216929604117e+00 0.000000000000e+00 
8.253562895988e+00 0.000000000000e+00 
8.290307002678e+00 0.000000000000e+00 
8.607096461598e+00 0.000000000000e+00 
8.643729753469e+00 0.000000000000e+00 
8.680473860160e+00 0.000000000000e+00 
8.993361648458e+00 0.000000000000e+00 
9.029994940329e+00 0.000000000000e+00 
9.066739047019e+00 0.000000000000e+00 
9.375764184750e+00 0.000000000000e+00 
9.412397476621e+00 0.000000000000e+00 
9.449141583312e+00 0.000000000000e+00 
9.754342695389e+00 0.000000000000e+00 
9.790975987260e+00 0.000000000000e+00 
9.827720093950e+00 0.000000000000e+00 
1.012913542073e+01 0.000000000000e+00 
1.016576871260e+01 0.000000000000e+00 
1.020251281929e+01 0.000000000000e+00 
1.050018021888e+01 0.000000000000e+00 
1.053681351075e+01 0.000000000000e+00 
1.057355761744e+01 0.000000000000e+00 
1.086751456825e+01 0.000000000000e+00 
1.090414786012e+01 0.000000000000e+00 
1.094089196681e+01 0.000000000000e+00 
1.123117557501e+01 0.000000000000e+00 
1.126780886688e+01 0.000000000000e+00 
1.130455297357e+01 0.000000000000e+00 
1.159119997019e+01 0.000000000000e+00 
1.162783326206e+01 0.000000000000e+00 
1.166457736875e+01 0.000000000000e+00 
1.194762412230e+01 0.000000000000e+00 
1.198425741417e+01 0.000000000000e+00 
1.202100152086e+01 0.000000000000e+00 
1.230048403416e+01 0.000000000000e+00 
1.233711732603e+01 0.000000000000e+00 
1.237386143272e+01 0.000000000000e+00 
1.264981534763e+01 0.000000000000e+00 
1.268644863950e+01 0.000000000000e+00 
1.272319274619e+01 0.000000000000e+00 
1.299565334812e+01 0.000000000000e+00 
1.303228664000e+01 0.000000000000e+00 
1.306903074669e+01 0.000000000000e+00 
1.333803296656e+01 0.000000000000e+00 
1.337466625843e+01 0.000000000000e+00 
1.341141036512e+01 0.000000000000e+00 
1.367698878901e+01 0.000000000000e+00 
1.371362208088e+01 0.000000000000e+00 
1.375036618757e+01 0.000000000000e+00 
1.401255505314e+01 0.000000000000e+00 
1.404918834501e+01 0.000000000000e+00 
1.408593245170e+01 0.000000000000e+00 
1.434476565524e+01 0.000000000000e+00 
1.438139894712e+01 0.000000000000e+00 
1.441814305381e+01 0.000000000000e+00 
1.467365415173e+01 0.000000000000e+00 
1.471028744360e+01 0.000000000000e+00 
1.474703155029e+01 0.000000000000e+00 
1.499925376338e+01 0.000000000000e+00 
1.503588705525e+01 0.000000000000e+00 
1.507263116194e+01 0.000000000000e+00 
1.532159737937e+01 0.000000000000e+00 
1.535823067124e+01 0.000000000000e+00 
1.539497477793e+01 0.000000000000e+00 
1.564071755872e+01 0.000000000000e+00 
1.567735085059e+01 0.000000000000e+00 
1.571409495728e+01 0.000000000000e+00 
1.595664653683e+01 0.000000000000e+00 
1.599327982870e+01 0.000000000000e+00 
1.603002393539e+01 0.000000000000e+00 
1.626941622418e+01 0.000000000000e+00 
1.630604951605e+01 0.000000000000e+00 
1.634279362274e+01 0.000000000000e+00 
1.657905821537e+01 0.000000000000e+00 
1.661569150724e+01 0.000000000000e+00 
1.665243561393e+01 0.000000000000e+00 
1.688560378759e+01 0.000000000000e+00 
1.692223707946e+01 0.000000000000e+00 
1.695898118615e+01 0.000000000000e+00 
1.718908390179e+01 0.000000000000e+00 
1.722571719366e+01 0.000000000000e+00 
1.726246130035e+01 0.000000000000e+00 
1.748952921416e+01 0.000000000000e+00 
1.752616250603e+01 0.000000000000e+00 
1.756290661272e+01 0.000000000000e+00 
1.778697007437e+01 0.000000000000e+00 
1.782360336624e+01 0.000000000000e+00 
1.786034747293e+01 0.000000000000e+00 
1.808143652655e+01 0.000000000000e+00 
1.811806981842e+01 0.000000000000e+00 
1.815481392512e+01 0.000000000000e+00 
1.837295831533e+01 0.000000000000e+00 
1.840959160720e+01 0.000000000000e+00 
1.844633571389e+01 0.000000000000e+00 
1.866156488659e+01 0.000000000000e+00 
1.869819817846e+01 0.000000000000e+00 
1.873494228515e+01 0.000000000000e+00 
1.894728539083e+01 0.000000000000e+00 
1.898391868270e+01 0.000000000000e+00 
1.902066278939e+01 0.000000000000e+00 
1.923014868906e+01 0.000000000000e+00 
1.926678198093e+01 0.000000000000e+00 
1.930352608762e+01 0.000000000000e+00 
1.951018335334e+01 0.000000000000e+00 
1.954681664521e+01 0.000000000000e+00 
1.958356075190e+01 0.000000000000e+00 
1.978741766997e+01 0.000000000000e+00 
1.982405096184e+01 0.000000000000e+00 
1.986079506853e+01 0.000000000000e+00 
2.006187964519e+01 0.000000000000e+00 
2.009851293706e+01 0.000000000000e+00 
2.013525704375e+01 0.000000000000e+00 
2.033359700292e+01 0.000000000000e+00 
2.037023029479e+01 0.000000000000e+00 
2.040697440148e+01 0.000000000000e+00 
2.060259718783e+01 0.000000000000e+00 
2.063923047970e+01 0.000000000000e+00 
2.067597458639e+01 0.000000000000e+00 
2.086890737086e+01 0.000000000000e+00 
2.090554066274e+01 0.000000000000e+00 
2.094228476943e+01 0.000000000000e+00 
2.113255444947e+01 0.000000000000e+00 
2.116918774134e+01 0.000000000000e+00 
2.120593184803e+01 0.000000000000e+00 
2.139356505572e+01 0.000000000000e+00 
2.143019834759e+01 0.000000000000e+00 
2.146694245428e+01 0.000000000000e+00 
2.165196555631e+01 0.000000000000e+00 
2.168859884818e+01 0.000000000000e+00 
2.172534295487e+01 0.000000000000e+00 
2.190778205274e+01 0.000000000000e+00 
2.194441534461e+01 0.000000000000e+00 
2.198115945130e+01 0.000000000000e+00 
2.216104038393e+01 0.000000000000e+00 
2.219767367581e+01 0.000000000000e+00 
2.223441778250e+01 0.000000000000e+00 
2.241176613152e+01 0.000000000000e+00 
2.244839942339e+01 0.000000000000e+00 
2.248514353008e+01 0.000000000000e+00 
2.265998462229e+01 0.000000000000e+00 
2.269661791416e+01 0.000000000000e+00 
2.273336202085e+01 0.000000000000e+00 
2.290572092813e+01 0.000000000000e+00 
2.294235422000e+01 0.000000000000e+00 
2.297909832669e+01 0.000000000000e+00 
2.314899987106e+01 0.000000000000e+00 
2.318563316293e+01 0.000000000000e+00 
2.322237726962e+01 0.000000000000e+00 
2.338984602567e+01 0.000000000000e+00 
2.342647931754e+01 0.000000000000e+00 
2.346322342423e+01 0.000000000000e+00 
2.362828371875e+01 0.000000000000e+00 
2.366491701062e+01 0.000000000000e+00 
2.370166111731e+01 0.000000000000e+00 
2.386433703436e+01 0.000000000000e+00 
2.390097032623e+01 0.000000000000e+00 
2.393771443292e+01 0.000000000000e+00 
2.409802981591e+01 0.000000000000e+00 
2.413466310778e+01 0.000000000000e+00 
2.417140721447e+01 0.000000000000e+00 
2.432938566848e+01 0.000000000000e+00 
2.436601896035e+01 0.000000000000e+00 
2.440276306704e+01 0.000000000000e+00 
2.455842796351e+01 0.000000000000e+00 
2.459506125538e+01 0.000000000000e+00 
2.463180536207e+01 0.000000000000e+00 
2.478517983566e+01 0.000000000000e+00 
2.482181312753e+01 0.000000000000e+00 
2.485855723422e+01 0.000000000000e+00 
2.500966419018e+01 0.000000000000e+00 
2.504629748205e+01 0.000000000000e+00 
2.508304158874e+01 0.000000000000e+00 
2.523190370217e+01 0.000000000000e+00 
2.526853699404e+01 0.000000000000e+00 
2.530528110073e+01 0.000000000000e+00 
2.545192081869e+01 0.000000000000e+00 
2.548855411056e+01 0.000000000000e+00 
2.552529821726e+01 0.000000000000e+00 
2.566973776320e+01 0.000000000000e+00 
2.570637105507e+01 0.000000000000e+00 
2.574311516176e+01 0.000000000000e+00 
2.588537653745e+01 0.000000000000e+00 
2.592200982932e+01 0.000000000000e+00 
2.595875393601e+01 0.000000000000e+00 
2.609885892330e+01 0.000000000000e+00 
2.613549221517e+01 0.000000000000e+00 
2.617223632187e+01 0.000000000000e+00 
2.631020648453e+01 0.000000000000e+00 
2.634683977640e+01 0.000000000000e+00 
2.638358388309e+01 0.000000000000e+00 
2.651944057113e+01 0.000000000000e+00 
2.655607386300e+01 0.000000000000e+00 
2.659281796969e+01 0.000000000000e+00 
2.672658231841e+01 0.000000000000e+00 
2.676321561028e+01 0.000000000000e+00 
2.679995971697e+01 0.000000000000e+00 
2.693165264865e+01 0.000000000000e+00 
2.696828594052e+01 0.000000000000e+00 
2.700503004721e+01 0.000000000000e+00 
2.713467227534e+01 0.000000000000e+00 
2.717130556721e+01 0.000000000000e+00 
2.720804967390e+01 0.000000000000e+00 
2.733566170473e+01 0.000000000000e+00 
2.737229499660e+01 0.000000000000e+00 
2.740903910329e+01 0.000000000000e+00 
2.753464124000e+01 0.000000000000e+00 
2.757127453187e+01 0.000000000000e+00 
2.760801863856e+01 0.000000000000e+00 
2.773163098003e+01 0.000000000000e+00 
2.776826427190e+01 0.000000000000e+00 
2.780500837859e+01 0.000000000000e+00 
2.792665082355e+01 0.000000000000e+00 
2.796328411542e+01 0.000000000000e+00 
2.800002822212e+01 0.000000000000e+00 
2.811972047053e+01 0.000000000000e+00 
2.815635376240e+01 0.000000000000e+00 
2.819309786909e+01 0.000000000000e+00 
2.831085942095e+01 0.000000000000e+00 
2.834749271282e+01 0.000000000000e+00 
2.838423681951e+01 0.000000000000e+00 
2.850008698114e+01 0.000000000000e+00 
2.853672027301e+01 0.000000000000e+00 
2.857346437970e+01 0.000000000000e+00 
2.868742226539e+01 0.000000000000e+00 
2.872405555726e+01 0.000000000000e+00 
2.876079966395e+01 0.000000000000e+00 
2.887288419698e+01 0.000000000000e+00 
2.890951748885e+01 0.000000000000e+00 
2.894626159554e+01 0.000000000000e+00 
2.905649150945e+01 0.000000000000e+00 
2.909312480132e+01 0.000000000000e+00 
2.912986890801e+01 0.000000000000e+00 
2.923826274772e+01 0.000000000000e+00 
2.927489603960e+01 0.000000000000e+00 
2.931164014629e+01 0.000000000000e+00 
2.941821627191e+01 0.000000000000e+00 
2.945484956378e+01 0.000000000000e+00 
2.949159367047e+01 0.000000000000e+00 
2.959637026097e+01 0.000000000000e+00 
2.963300355284e+01 0.000000000000e+00 
2.966974765953e+01 0.000000000000e+00 
2.977274271113e+01 0.000000000000e+00 
2.980937600300e+01 0.000000000000e+00 
2.984612010969e+01 0.000000000000e+00 
2.994735143694e+01 0.000000000000e+00 
2.998398472881e+01 0.000000000000e+00 
3.002072883550e+01 0.000000000000e+00 
3.012021407485e+01 0.000000000000e+00 
3.015684736673e+01 0.000000000000e+00 
3.019359147342e+01 0.000000000000e+00 
3.029134808681e+01 0.000000000000e+00 
3.032798137868e+01 0.000000000000e+00 
3.036472548537e+01 0.000000000000e+00 
3.046077075848e+01 0.000000000000e+00 
3.049740405035e+01 0.000000000000e+00 
3.053414815704e+01 0.000000000000e+00 
3.062849920281e+01 0.000000000000e+00 
3.066513249468e+01 0.000000000000e+00 
3.070187660137e+01 0.000000000000e+00 
3.079455036343e+01 0.000000000000e+00 
3.083118365530e+01 0.000000000000e+00 
3.086792776199e+01 0.000000000000e+00 
3.095894101285e+01 0.000000000000e+00 
3.099557430472e+01 0.000000000000e+00 
3.103231841141e+01 0.000000000000e+00 
3.112168775588e+01 0.000000000000e+00 
3.115832104775e+01 0.000000000000e+00 
3.119506515444e+01 0.000000000000e+00 
3.128280703031e+01 0.000000000000e+00 
3.131944032218e+01 0.000000000000e+00 
3.135618442887e+01 0.000000000000e+00 
3.144231511293e+01 0.000000000000e+00 
3.147894840480e+01 0.000000000000e+00 
3.151569251149e+01 0.000000000000e+00 
3.160022811482e+01 0.000000000000e+00 
3.163686140669e+01 0.000000000000e+00 
3.167360551338e+01 0.000000000000e+00 
3.175656198479e+01 0.000000000000e+00 
3.179319527667e+01 0.000000000000e+00 
3.182993938336e+01 0.000000000000e+00 
3.191133251770e+01 0.000000000000e+00 
3.194796580957e+01 0.000000000000e+00 
3.198470991626e+01 0.000000000000e+00 
3.206455534717e+01 0.000000000000e+00 
3.210118863905e+01 0.000000000000e+00 
3.213793274574e+01 0.000000000000e+00 
3.221624594882e+01 0.000000000000e+00 
3.225287924069e+01 0.000000000000e+00 
3.228962334738e+01 0.000000000000e+00 
3.236641964335e+01 0.000000000000e+00 
3.240305293522e+01 0.000000000000e+00 
3.243979704191e+01 0.000000000000e+00 
3.251509159966e+01 0.000000000000e+00 
3.255172489153e+01 0.000000000000e+00 
3.258846899822e+01 0.000000000000e+00 
3.266227683528e+01 0.000000000000e+00 
3.269891012715e+01 0.000000000000e+00 
3.273565423384e+01 0.000000000000e+00 
3.280799021940e+01 0.000000000000e+00 
3.284462351127e+01 0.000000000000e+00 
3.288136761796e+01 0.000000000000e+00 
3.295224647057e+01 0.000000000000e+00 
3.298887976244e+01 0.000000000000e+00 
3.302562386913e+01 0.000000000000e+00 
3.309506015719e+01 0.000000000000e+00 
3.313169344906e+01 0.000000000000e+00 
3.316843755575e+01 0.000000000000e+00 
3.323644570821e+01 0.000000000000e+00 
3.327307900008e+01 0.000000000000e+00 
3.330982310677e+01 0.000000000000e+00 
3.337641740556e+01 0.000000000000e+00 
3.341305069743e+01 0.000000000000e+00 
3.344979480412e+01 0.000000000000e+00 
3.351498938448e+01 0.000000000000e+00 
3.355162267635e+01 0.000000000000e+00 
3.358836678304e+01 0.000000000000e+00 
3.365217564421e+01 0.000000000000e+00 
3.368880893608e+01 0.000000000000e+00 
3.372555304277e+01 0.000000000000e+00 
3.378799004291e+01 0.000000000000e+00 
3.382462333478e+01 0.000000000000e+00 
3.386136744147e+01 0.000000000000e+00 
3.392244629529e+01 0.000000000000e+00 
3.395907958716e+01 0.000000000000e+00 
3.399582369385e+01 0.000000000000e+00 
3.405555798325e+01 0.000000000000e+00 
3.409219127512e+01 0.000000000000e+00 
3.412893538181e+01 0.000000000000e+00 
3.418733855591e+01 0.000000000000e+00 
3.422397184778e+01 0.000000000000e+00 
3.426071595447e+01 0.000000000000e+00 
3.431780132451e+01 0.000000000000e+00 
3.435443461638e+01 0.000000000000e+00 
3.439117872307e+01 0.000000000000e+00 
3.444695946511e+01 0.000000000000e+00 
3.448359275698e+01 0.000000000000e+00 
3.452033686367e+01 0.000000000000e+00 
3.457482602390e+01 0.000000000000e+00 
3.461145931577e+01 0.000000000000e+00 
3.464820342246e+01 0.000000000000e+00 
3.470141391716e+01 0.000000000000e+00 
3.473804720903e+01 0.000000000000e+00 
3.477479131572e+01 0.000000000000e+00 
3.482673593130e+01 0.000000000000e+00 
3.486336922317e+01 0.000000000000e+00 
3.490011332986e+01 0.000000000000e+00 
3.495080472539e+01 0.000000000000e+00 
3.498743801726e+01 0.000000000000e+00 
3.502418212395e+01 0.000000000000e+00 
3.507363283113e+01 0.000000000000e+00 
3.511026612300e+01 0.000000000000e+00 
3.514701022969e+01 0.000000000000e+00 
3.519523265539e+01 0.000000000000e+00 
3.523186594726e+01 0.000000000000e+00 
3.526861005395e+01 0.000000000000e+00 
3.531561648269e+01 0.000000000000e+00 
3.535224977456e+01 0.000000000000e+00 
3.538899388125e+01 0.000000000000e+00 
3.543479647242e+01 0.000000000000e+00 
3.547142976429e+01 0.000000000000e+00 
3.550817387098e+01 0.000000000000e+00 
3.555278466137e+01 0.000000000000e+00 
3.558941795324e+01 0.000000000000e+00 
3.562616205993e+01 0.000000000000e+00 
3.566959296874e+01 0.000000000000e+00 
3.570622626061e+01 0.000000000000e+00 
3.574297036730e+01 0.000000000000e+00 
3.578523319326e+01 0.000000000000e+00 
3.582186648514e+01 0.000000000000e+00 
3.585861059183e+01 0.000000000000e+00 
3.589971701569e+01 0.000000000000e+00 
3.593635030756e+01 0.000000000000e+00 
3.597309441425e+01 0.000000000000e+00 
3.601305599842e+01 0.000000000000e+00 
3.604968929029e+01 0.000000000000e+00 
3.608643339698e+01 0.000000000000e+00 
3.612526159057e+01 0.000000000000e+00 
3.616189488244e+01 0.000000000000e+00 
3.619863898913e+01 0.000000000000e+00 
3.623634512756e+01 0.000000000000e+00 
3.627297841943e+01 0.000000000000e+00 
3.630972252612e+01 0.000000000000e+00 
3.634631782820e+01 0.000000000000e+00 
3.638295112007e+01 0.000000000000e+00 
3.641969522676e+01 0.000000000000e+00 
3.645519080223e+01 0.000000000000e+00 
3.649182409410e+01 0.000000000000e+00 
3.652856820079e+01 0.000000000000e+00 
3.656297504727e+01 0.000000000000e+00 
3.659960833914e+01 0.000000000000e+00 
3.663635244584e+01 0.000000000000e+00 
3.666968144847e+01 0.000000000000e+00 
3.670631474034e+01 0.000000000000e+00 
3.674305884703e+01 0.000000000000e+00 
3.677532078594e+01 0.000000000000e+00 
3.681195407781e+01 0.000000000000e+00 
3.684869818450e+01 0.000000000000e+00 
3.687990373161e+01 0.000000000000e+00 
3.691653702348e+01 0.000000000000e+00 
3.695328113017e+01 0.000000000000e+00 
3.698344084627e+01 0.000000000000e+00 
3.702007413814e+01 0.000000000000e+00 
3.705681824483e+01 0.000000000000e+00 
3.708594258951e+01 0.000000000000e+00 
3.712257588138e+01 0.000000000000e+00 
3.715931998807e+01 0.000000000000e+00 
3.718741931654e+01 0.000000000000e+00 
3.722405260842e+01 0.000000000000e+00 
3.726079671511e+01 0.000000000000e+00 
3.728788127512e+01 0.000000000000e+00 
3.732451456699e+01 0.000000000000e+00 
3.736125867368e+01 0.000000000000e+00 
3.738733861546e+01 0.000000000000e+00 
3.742397190733e+01 0.000000000000e+00 
3.746071601402e+01 0.000000000000e+00 
3.748580138436e+01 0.000000000000e+00 
3.752243467623e+01 0.000000000000e+00 
3.755917878292e+01 0.000000000000e+00 
3.758327952471e+01 0.000000000000e+00 
3.761991281658e+01 0.000000000000e+00 
3.765665692327e+01 0.000000000000e+00 
3.767978288269e+01 0.000000000000e+00 
3.771641617456e+01 0.000000000000e+00 
3.775316028125e+01 0.000000000000e+00 
3.777532120717e+01 0.000000000000e+00 
3.781195449904e+01 0.000000000000e+00 
3.784869860573e+01 0.000000000000e+00 
3.786990414898e+01 0.000000000000e+00 
3.790653744085e+01 0.000000000000e+00 
3.794328154754e+01 0.000000000000e+00 
3.796354126034e+01 0.000000000000e+00 
3.800017455221e+01 0.000000000000e+00 
3.803691865890e+01 0.000000000000e+00 
3.805624199936e+01 0.000000000000e+00 
3.809287529123e+01 0.000000000000e+00 
3.812961939792e+01 0.000000000000e+00 
3.814801573194e+01 0.000000000000e+00 
3.818464902381e+01 0.000000000000e+00 
3.822139313050e+01 0.000000000000e+00 
3.823887172841e+01 0.000000000000e+00 
3.827550502028e+01 0.000000000000e+00 
3.831224912697e+01 0.000000000000e+00 
3.832881916544e+01 0.000000000000e+00 
3.836545245732e+01 0.000000000000e+00 
3.840219656401e+01 0.000000000000e+00 
3.841786712790e+01 0.000000000000e+00 
3.845450041977e+01 0.000000000000e+00 
3.849124452646e+01 0.000000000000e+00 
3.850602461067e+01 0.000000000000e+00 
3.854265790254e+01 0.000000000000e+00 
3.857940200923e+01 0.000000000000e+00 
3.859330051783e+01 0.000000000000e+00 
3.862993380970e+01 0.000000000000e+00 
3.866667791639e+01 0.000000000000e+00 
3.867970366450e+01 0.000000000000e+00 
3.871633695637e+01 0.000000000000e+00 
3.875308106306e+01 0.000000000000e+00 
3.876524278120e+01 0.000000000000e+00 
3.880187607307e+01 0.000000000000e+00 
3.883862017976e+01 0.000000000000e+00 
3.884992650773e+01 0.000000000000e+00 
3.888655979960e+01 0.000000000000e+00 
3.892330390629e+01 0.000000000000e+00 
3.893376339499e+01 0.000000000000e+00 
3.897039668686e+01 0.000000000000e+00 
3.900714079355e+01 0.000000000000e+00 
3.901676191192e+01 0.000000000000e+00 
3.905339520379e+01 0.000000000000e+00 
3.909013931048e+01 0.000000000000e+00 
3.909893044456e+01 0.000000000000e+00 
3.913556373643e+01 0.000000000000e+00 
3.917230784312e+01 0.000000000000e+00 
3.918027729249e+01 0.000000000000e+00 
3.921691058436e+01 0.000000000000e+00 
3.925365469105e+01 0.000000000000e+00 
3.926081067321e+01 0.000000000000e+00 
3.929744396508e+01 0.000000000000e+00 
3.933418807177e+01 0.000000000000e+00 
3.934053872106e+01 0.000000000000e+00 
3.937717201293e+01 0.000000000000e+00 
3.941391611962e+01 0.000000000000e+00 
3.941946948637e+01 0.000000000000e+00 
3.945610277824e+01 0.000000000000e+00 
3.949284688493e+01 0.000000000000e+00 
3.949761094227e+01 0.000000000000e+00 
3.953424423415e+01 0.000000000000e+00 
3.957098834084e+01 0.000000000000e+00 
3.957497098369e+01 0.000000000000e+00 
3.961160427557e+01 0.000000000000e+00 
3.964834838226e+01 0.000000000000e+00 
3.965155742628e+01 0.000000000000e+00 
3.968819071815e+01 0.000000000000e+00 
3.972493482484e+01 0.000000000000e+00 
3.972737800540e+01 0.000000000000e+00 
3.976401129727e+01 0.000000000000e+00 
3.980075540396e+01 0.000000000000e+00 
3.980244037772e+01 0.000000000000e+00 
3.983907366959e+01 0.000000000000e+00 
3.987581777628e+01 0.000000000000e+00 
3.987675212538e+01 0.000000000000e+00 
3.991338541725e+01 0.000000000000e+00 
3.995012952394e+01 0.000000000000e+00 
3.995032075749e+01 0.000000000000e+00 
3.998695404936e+01 0.000000000000e+00 
4.002369815605e+01 0.000000000000e+00 
 TITLE = "Profiles along polylines"
 VARIABLES = "DIST" "HEAD" 
 ZONE T="TIME=1.797693134862e+308"
4.950320757485e+00 3.426642057015e+01 
4.986954049356e+00 3.426392371193e+01 
5.023698156046e+00 3.426140080079e+01 
5.373153701751e+00 3.426627659033e+01 
5.409786993622e+00 3.426377959935e+01 
5.446531100312e+00 3.426125655503e+01 
5.791758318890e+00 3.426613555816e+01 
5.828391610761e+00 3.426363843573e+01 
5.865135717452e+00 3.426111525958e+01 
6.206176888760e+00 3.426599741465e+01 
6.242810180631e+00 3.426350016210e+01 
6.279554287322e+00 3.426097685543e+01 
6.616451272780e+00 3.426586210158e+01 
6.653084564651e+00 3.426336472020e+01 
6.689828671341e+00 3.426084128431e+01 
7.022622914433e+00 3.426572956174e+01 
7.059256206304e+00 3.426323205282e+01 
7.096000312994e+00 3.426070848900e+01 
7.424732839855e+00 3.426559973908e+01 
7.461366131726e+00 3.426310210389e+01 
7.498110238416e+00 3.426057841342e+01 
7.822821666104e+00 3.426547257867e+01 
7.859454957975e+00 3.426297481847e+01 
7.896199064665e+00 3.426045100262e+01 
8.216929604117e+00 3.426534802672e+01 
8.253562895988e+00 3.426285014277e+01 
8.290307002678e+00 3.426032620278e+01 
8.607096461598e+00 3.426522603052e+01 
8.643729753469e+00 3.426272802405e+01 
8.680473860160e+00 3.426020396117e+01 
8.993361648458e+00 3.426510653843e+01 
9.029994940329e+00 3.426260841066e+01 
9.066739047019e+00 3.426008422613e+01 
9.375764184750e+00 3.426498949984e+01 
9.412397476621e+00 3.426249125200e+01 
9.449141583312e+00 3.425996694702e+01 
9.754342695389e+00 3.426487486517e+01 
9.790975987260e+00 3.426237649845e+01 
9.827720093950e+00 3.425985207423e+01 
1.012913542073e+01 3.426476258583e+01 
1.016576871260e+01 3.426226410141e+01 
1.020251281929e+01 3.425973955915e+01 
1.050018021888e+01 3.426465261419e+01 
1.053681351075e+01 3.426215401327e+01 
1.057355761744e+01 3.425962935414e+01 
1.086751456825e+01 3.426454490362e+01 
1.090414786012e+01 3.426204618734e+01 
1.094089196681e+01 3.425952141251e+01 
1.123117557501e+01 3.426443940837e+01 
1.126780886688e+01 3.426194057790e+01 
1.130455297357e+01 3.425941568853e+01 
1.159119997019e+01 3.426433608366e+01 
1.162783326206e+01 3.426183714013e+01 
1.166457736875e+01 3.425931213737e+01 
1.194762412230e+01 3.426423488556e+01 
1.198425741417e+01 3.426173583012e+01 
1.202100152086e+01 3.425921071509e+01 
1.230048403416e+01 3.426413577106e+01 
1.233711732603e+01 3.426163660481e+01 
1.237386143272e+01 3.425911137865e+01 
1.264981534763e+01 3.426403869800e+01 
1.268644863950e+01 3.426153942205e+01 
1.272319274619e+01 3.425901408586e+01 
1.299565334812e+01 3.426394362506e+01 
1.303228664000e+01 3.426144424051e+01 
1.306903074669e+01 3.425891879539e+01 
1.333803296656e+01 3.426385051175e+01 
1.337466625843e+01 3.426135101969e+01 
1.341141036512e+01 3.425882546673e+01 
1.367698878901e+01 3.426375931839e+01 
1.371362208088e+01 3.426125971990e+01 
1.375036618757e+01 3.425873406018e+01 
1.401255505314e+01 3.426367000613e+01 
1.404918834501e+01 3.426117030226e+01 
1.408593245170e+01 3.425864453684e+01 
1.434476565524e+01 3.426358253684e+01 
1.438139894712e+01 3.426108272866e+01 
1.441814305381e+01 3.425855685861e+01 
1.467365415173e+01 3.426349687321e+01 
1.471028744360e+01 3.426099696175e+01 
1.474703155029e+01 3.425847098811e+01 
1.499925376338e+01 3.426341297865e+01 
1.503588705525e+01 3.426091296495e+01 
1.507263116194e+01 3.425838688875e+01 
1.532159737937e+01 3.426333081732e+01 
1.535823067124e+01 3.426083070239e+01 
1.539497477793e+01 3.425830452467e+01 
1.564071755872e+01 3.426325035407e+01 
1.567735085059e+01 3.426075013893e+01 
1.571409495728e+01 3.425822386070e+01 
1.595664653683e+01 3.426317155450e+01 
1.599327982870e+01 3.426067124015e+01 
1.603002393539e+01 3.425814486241e+01 
1.626941622418e+01 3.426309438486e+01 
1.630604951605e+01 3.426059397230e+01 
1.634279362274e+01 3.425806749605e+01 
1.657905821537e+01 3.426301881211e+01 
1.661569150724e+01 3.426051830232e+01 
1.665243561393e+01 3.425799172854e+01 
1.688560378759e+01 3.426294480385e+01 
1.692223707946e+01 3.426044419780e+01 
1.695898118615e+01 3.425791752747e+01 
1.718908390179e+01 3.426287232835e+01 
1.722571719366e+01 3.426037162700e+01 
1.726246130035e+01 3.425784486108e+01 
1.748952921416e+01 3.426280135450e+01 
1.752616250603e+01 3.426030055881e+01 
1.756290661272e+01 3.425777369826e+01 
1.778697007437e+01 3.426273185183e+01 
1.782360336624e+01 3.426023096273e+01 
1.786034747293e+01 3.425770400850e+01 
1.808143652655e+01 3.426266379046e+01 
1.811806981842e+01 3.426016280890e+01 
1.815481392512e+01 3.425763576192e+01 
1.837295831533e+01 3.426259714115e+01 
1.840959160720e+01 3.426009606804e+01 
1.844633571389e+01 3.425756892924e+01 
1.866156488659e+01 3.426253187520e+01 
1.869819817846e+01 3.426003071147e+01 
1.873494228515e+01 3.425750348177e+01 
1.894728539083e+01 3.426246796453e+01 
1.898391868270e+01 3.425996671108e+01 
1.902066278939e+01 3.425743939138e+01 
1.923014868906e+01 3.426240538159e+01 
1.926678198093e+01 3.425990403932e+01 
1.930352608762e+01 3.425737663053e+01 
1.951018335334e+01 3.426234409941e+01 
1.954681664521e+01 3.425984266920e+01 
1.958356075190e+01 3.425731517221e+01 
1.978741766997e+01 3.426228409155e+01 
1.982405096184e+01 3.425978257428e+01 
1.986079506853e+01 3.425725498997e+01 
2.006187964519e+01 3.426222533209e+01 
2.009851293706e+01 3.425972372864e+01 
2.013525704375e+01 3.425719605789e+01 
2.033359700292e+01 3.426216779566e+01 
2.037023029479e+01 3.425966610688e+01 
2.040697440148e+01 3.425713835055e+01 
2.060259718783e+01 3.426211145738e+01 
2.063923047970e+01 3.425960968413e+01 
2.067597458639e+01 3.425708184307e+01 
2.086890737086e+01 3.426205629287e+01 
2.090554066274e+01 3.425955443599e+01 
2.094228476943e+01 3.425702651105e+01 
2.113255444947e+01 3.426200227824e+01 
2.116918774134e+01 3.425950033858e+01 
2.120593184803e+01 3.425697233060e+01 
2.139356505572e+01 3.426194939011e+01 
2.143019834759e+01 3.425944736848e+01 
2.146694245428e+01 3.425691927829e+01 
2.165196555631e+01 3.426189760552e+01 
2.168859884818e+01 3.425939550275e+01 
2.172534295487e+01 3.425686733117e+01 
2.190778205274e+01 3.426184690201e+01 
2.194441534461e+01 3.425934471891e+01 
2.198115945130e+01 3.425681646676e+01 
2.216104038393e+01 3.426179725757e+01 
2.219767367581e+01 3.425929499494e+01 
2.223441778250e+01 3.425676666302e+01 
2.241176613152e+01 3.426174865061e+01 
2.244839942339e+01 3.425924630925e+01 
2.248514353008e+01 3.425671789836e+01 
2.265998462229e+01 3.426170105999e+01 
2.269661791416e+01 3.425919864068e+01 
2.273336202085e+01 3.425667015161e+01 
2.290572092813e+01 3.426165446499e+01 
2.294235422000e+01 3.425915196853e+01 
2.297909832669e+01 3.425662340206e+01 
2.314899987106e+01 3.426160884533e+01 
2.318563316293e+01 3.425910627247e+01 
2.322237726962e+01 3.425657762937e+01 
2.338984602567e+01 3.426156418110e+01 
2.342647931754e+01 3.425906153261e+01 
2.346322342423e+01 3.425653281366e+01 
2.362828371875e+01 3.426152045283e+01 
2.366491701062e+01 3.425901772946e+01 
2.370166111731e+01 3.425648893541e+01 
2.386433703436e+01 3.426147764140e+01 
2.390097032623e+01 3.425897484391e+01 
2.393771443292e+01 3.425644597551e+01 
2.409802981591e+01 3.426143572812e+01 
2.413466310778e+01 3.425893285725e+01 
2.417140721447e+01 3.425640391524e+01 
2.432938566848e+01 3.426139469464e+01 
2.436601896035e+01 3.425889175112e+01 
2.440276306704e+01 3.425636273624e+01 
2.455842796351e+01 3.426135452300e+01 
2.459506125538e+01 3.425885150755e+01 
2.463180536207e+01 3.425632242054e+01 
2.478517983566e+01 3.426131519559e+01 
2.482181312753e+01 3.425881210895e+01 
2.485855723422e+01 3.425628295051e+01 
2.500966419018e+01 3.426127669518e+01 
2.504629748205e+01 3.425877353804e+01 
2.508304158874e+01 3.425624430889e+01 
2.523190370217e+01 3.426123900484e+01 
2.526853699404e+01 3.425873577792e+01 
2.530528110073e+01 3.425620647878e+01 
2.545192081869e+01 3.426120210804e+01 
2.548855411056e+01 3.425869881203e+01 
2.552529821726e+01 3.425616944359e+01 
2.566973776320e+01 3.426116598854e+01 
2.570637105507e+01 3.425866262412e+01 
2.574311516176e+01 3.425613318708e+01 
2.588537653745e+01 3.426113063043e+01 
2.592200982932e+01 3.425862719831e+01 
2.595875393601e+01 3.425609769335e+01 
2.609885892330e+01 3.426109601816e+01 
2.613549221517e+01 3.425859251899e+01 
2.617223632187e+01 3.425606294679e+01 
2.631020648453e+01 3.426106213644e+01 
2.634683977640e+01 3.425855857091e+01 
2.638358388309e+01 3.425602893214e+01 
2.651944057113e+01 3.426102897032e+01 
2.655607386300e+01 3.425852533909e+01 
2.659281796969e+01 3.425599563442e+01 
2.672658231841e+01 3.426099650515e+01 
2.676321561028e+01 3.425849280888e+01 
2.679995971697e+01 3.425596303896e+01 
2.693165264865e+01 3.426096472658e+01 
2.696828594052e+01 3.425846096591e+01 
2.700503004721e+01 3.425593113140e+01 
2.713467227534e+01 3.426093362052e+01 
2.717130556721e+01 3.425842979610e+01 
2.720804967390e+01 3.425589989765e+01 
2.733566170473e+01 3.426090317321e+01 
2.737229499660e+01 3.425839928567e+01 
2.740903910329e+01 3.425586932392e+01 
2.753464124000e+01 3.426087337112e+01 
2.757127453187e+01 3.425836942110e+01 
2.760801863856e+01 3.425583939668e+01 
2.773163098003e+01 3.426084420104e+01 
2.776826427190e+01 3.425834018916e+01 
2.780500837859e+01 3.425581010269e+01 
2.792665082355e+01 3.426081564998e+01 
2.796328411542e+01 3.425831157687e+01 