 TITLE = "Profiles along polylines"
 VARIABLES = "DIST" "HEAD" 
 ZONE T="TIME=0.000000000000e+00"
7.881370700407e+01 0.000000000000e+00 
7.923653994834e+01 0.000000000000e+00 
7.965514456548e+01 0.000000000000e+00 
8.006956313535e+01 0.000000000000e+00 
8.047983751937e+01 0.000000000000e+00 
8.088600916102e+01 0.000000000000e+00 
8.128811908645e+01 0.000000000000e+00 
8.168620791270e+01 0.000000000000e+00 
8.208031585071e+01 0.000000000000e+00 
8.247048270819e+01 0.000000000000e+00 
8.285674789505e+01 0.000000000000e+00 
8.323915043135e+01 0.000000000000e+00 
8.361772894199e+01 0.000000000000e+00 
8.399252166733e+01 0.000000000000e+00 
8.436356646548e+01 0.000000000000e+00 
8.473090081485e+01 0.000000000000e+00 
8.509456182161e+01 0.000000000000e+00 
8.545458621679e+01 0.000000000000e+00 
8.581101036890e+01 0.000000000000e+00 
8.616387028077e+01 0.000000000000e+00 
8.651320159424e+01 0.000000000000e+00 
8.685903959473e+01 0.000000000000e+00 
8.720141921317e+01 0.000000000000e+00 
8.754037503561e+01 0.000000000000e+00 
8.787594129975e+01 0.000000000000e+00 
8.820815190186e+01 0.000000000000e+00 
8.853704039834e+01 0.000000000000e+00 
8.886264001000e+01 0.000000000000e+00 
8.918498362598e+01 0.000000000000e+00 
8.950410380533e+01 0.000000000000e+00 
8.982003278345e+01 0.000000000000e+00 
9.013280247080e+01 0.000000000000e+00 
9.044244446199e+01 0.000000000000e+00 
9.074899003421e+01 0.000000000000e+00 
9.105247014841e+01 0.000000000000e+00 
9.135291546078e+01 0.000000000000e+00 
9.165035632099e+01 0.000000000000e+00 
9.194482277318e+01 0.000000000000e+00 
9.223634456196e+01 0.000000000000e+00 
9.252495113322e+01 0.000000000000e+00 
9.281067163746e+01 0.000000000000e+00 
9.309353493569e+01 0.000000000000e+00 
9.337356959997e+01 0.000000000000e+00 
9.365080391660e+01 0.000000000000e+00 
9.392526589182e+01 0.000000000000e+00 
9.419698324955e+01 0.000000000000e+00 
9.446598343446e+01 0.000000000000e+00 
9.473229361750e+01 0.000000000000e+00 
9.499594069611e+01 0.000000000000e+00 
9.525695130236e+01 0.000000000000e+00 
9.551535180294e+01 0.000000000000e+00 
9.577116829938e+01 0.000000000000e+00 
9.602442663057e+01 0.000000000000e+00 
9.627515237816e+01 0.000000000000e+00 
9.652337086893e+01 0.000000000000e+00 
9.676910717476e+01 0.000000000000e+00 
9.701238611769e+01 0.000000000000e+00 
9.725323227230e+01 0.000000000000e+00 
9.749166996539e+01 0.000000000000e+00 
9.772772328100e+01 0.000000000000e+00 
9.796141606254e+01 0.000000000000e+00 
9.819277191511e+01 0.000000000000e+00 
9.842181421014e+01 0.000000000000e+00 
9.864856608229e+01 0.000000000000e+00 
9.887305043680e+01 0.000000000000e+00 
9.909528994880e+01 0.000000000000e+00 
9.931530706532e+01 0.000000000000e+00 
9.953312400982e+01 0.000000000000e+00 
9.974876278407e+01 0.000000000000e+00 
9.996224516993e+01 0.000000000000e+00 
1.001735927312e+02 0.000000000000e+00 
1.003828268178e+02 0.000000000000e+00 
1.005899685650e+02 0.000000000000e+00 
1.007950388953e+02 0.000000000000e+00 
1.009980585220e+02 0.000000000000e+00 
1.011990479514e+02 0.000000000000e+00 
1.013980274866e+02 0.000000000000e+00 
1.015950172266e+02 0.000000000000e+00 
1.017900370702e+02 0.000000000000e+00 
1.019831067171e+02 0.000000000000e+00 
 TITLE = "Profiles along polylines"
 VARIABLES = "DIST" "HEAD" 
 ZONE T="TIME=1.797693134862e+308"
7.881370700407e+01 3.111619785001e+01 
7.923653994834e+01 3.111543837965e+01 
7.965514456548e+01 3.111468807735e+01 
8.006956313535e+01 3.111394682366e+01 
8.047983751937e+01 3.111321450082e+01 
8.088600916102e+01 3.111249099254e+01 
8.128811908645e+01 3.111177618398e+01 
8.168620791270e+01 3.111106996165e+01 
8.208031585071e+01 3.111037221348e+01 
8.247048270819e+01 3.110968282875e+01 
8.285674789505e+01 3.110900169811e+01 
8.323915043135e+01 3.110832871359e+01 
8.361772894199e+01 3.110766376854e+01 
8.399252166733e+01 3.110700675769e+01 
8.436356646548e+01 3.110635757708e+01 
8.473090081485e+01 3.110571612410e+01 
8.509456182161e+01 3.110508229742e+01 
8.545458621679e+01 3.110445599706e+01 
8.581101036890e+01 3.110383712430e+01 
8.616387028077e+01 3.110322558173e+01 
8.651320159424e+01 3.110262127322e+01 
8.685903959473e+01 3.110202410391e+01 
8.720141921317e+01 3.110143398019e+01 
8.754037503561e+01 3.110085080970e+01 
8.787594129975e+01 3.110027450134e+01 
8.820815190186e+01 3.109970496522e+01 
8.853704039834e+01 3.109914211268e+01 
8.886264001000e+01 3.109858585626e+01 
8.918498362598e+01 3.109803610971e+01 
8.950410380533e+01 3.109749278796e+01 
8.982003278345e+01 3.109695580712e+01 
9.013280247080e+01 3.109642508446e+01 
9.044244446199e+01 3.109590053840e+01 
9.074899003421e+01 3.109538208851e+01 
9.105247014841e+01 3.109486965548e+01 
9.135291546078e+01 3.109436316113e+01 
9.165035632099e+01 3.109386252837e+01 
9.194482277318e+01 3.109336768119e+01 
9.223634456196e+01 3.109287854469e+01 
9.252495113322e+01 3.109239504502e+01 
9.281067163746e+01 3.109191710939e+01 
9.309353493569e+01 3.109144466604e+01 
9.337356959997e+01 3.109097764424e+01 
9.365080391660e+01 3.109051597429e+01 
9.392526589182e+01 3.109005958746e+01 
9.419698324955e+01 3.108960841605e+01 
9.446598343446e+01 3.108916239330e+01 
9.473229361750e+01 3.108872145343e+01 
9.499594069611e+01 3.108828553161e+01 
9.525695130236e+01 3.108785456395e+01 
9.551535180294e+01 3.108742848746e+01 
9.577116829938e+01 3.108700724008e+01 
9.602442663057e+01 3.108659076065e+01 
9.627515237816e+01 3.108617898888e+01 
9.652337086893e+01 3.108577186535e+01 
9.676910717476e+01 3.108536933152e+01 
9.701238611769e+01 3.108497132968e+01 
9.725323227230e+01 3.108457780296e+01 
9.749166996539e+01 3.108418869529e+01 
9.772772328100e+01 3.108380395144e+01 
9.796141606254e+01 3.108342351695e+01 
9.819277191511e+01 3.108304733817e+01 
9.842181421014e+01 3.108267536219e+01 
9.864856608229e+01 3.108230753688e+01 
9.887305043680e+01 3.108194381085e+01 
9.909528994880e+01 3.108158413345e+01 
9.931530706532e+01 3.108122845475e+01 
9.953312400982e+01 3.108087672555e+01 
9.974876278407e+01 3.108052889733e+01 
9.996224516993e+01 3.108018492227e+01 
1.001735927312e+02 3.107984475323e+01 
1.003828268178e+02 3.107950834373e+01 
1.005899685650e+02 3.107917564795e+01 
1.007950388953e+02 3.107884662074e+01 
1.009980585220e+02 3.107852121755e+01 
1.011990479514e+02 3.107819939450e+01 
1.013980274866e+02 3.107788110828e+01 
1.015950172266e+02 3.107756631622e+01 
1.017900370702e+02 3.107725497624e+01 
1.019831067171e+02 3.107694704683e+01 
