 TITLE = "Profiles along polylines"
 VARIABLES = "DIST" "HEAD" 
 ZONE T="TIME=0.000000000000e+00"
4.383943179019e+01 0.000000000000e+00 
4.426226473446e+01 0.000000000000e+00 
4.468086935160e+01 0.000000000000e+00 
4.509528792147e+01 0.000000000000e+00 
4.550556230549e+01 0.000000000000e+00 
4.591173394715e+01 0.000000000000e+00 
4.631384387257e+01 0.000000000000e+00 
4.671193269882e+01 0.000000000000e+00 
4.710604063683e+01 0.000000000000e+00 
4.749620749431e+01 0.000000000000e+00 
4.788247268118e+01 0.000000000000e+00 
4.826487521747e+01 0.000000000000e+00 
4.864345372811e+01 0.000000000000e+00 
4.901824645345e+01 0.000000000000e+00 
4.938929125160e+01 0.000000000000e+00 
4.975662560097e+01 0.000000000000e+00 
5.012028660773e+01 0.000000000000e+00 
5.048031100291e+01 0.000000000000e+00 
5.083673515502e+01 0.000000000000e+00 
5.118959506689e+01 0.000000000000e+00 
5.153892638036e+01 0.000000000000e+00 
5.188476438085e+01 0.000000000000e+00 
5.222714399929e+01 0.000000000000e+00 
5.256609982173e+01 0.000000000000e+00 
5.290166608587e+01 0.000000000000e+00 
5.323387668797e+01 0.000000000000e+00 
5.356276518446e+01 0.000000000000e+00 
5.388836479611e+01 0.000000000000e+00 
5.421070841210e+01 0.000000000000e+00 
5.452982859145e+01 0.000000000000e+00 
5.484575756957e+01 0.000000000000e+00 
5.515852725692e+01 0.000000000000e+00 
5.546816924811e+01 0.000000000000e+00 
5.577471482033e+01 0.000000000000e+00 
5.607819493453e+01 0.000000000000e+00 
5.637864024690e+01 0.000000000000e+00 
5.667608110711e+01 0.000000000000e+00 
5.697054755929e+01 0.000000000000e+00 
5.726206934807e+01 0.000000000000e+00 
5.755067591933e+01 0.000000000000e+00 
5.783639642357e+01 0.000000000000e+00 
5.811925972180e+01 0.000000000000e+00 
5.839929438608e+01 0.000000000000e+00 
5.867652870272e+01 0.000000000000e+00 
5.895099067793e+01 0.000000000000e+00 
5.922270803566e+01 0.000000000000e+00 
5.949170822058e+01 0.000000000000e+00 
5.975801840361e+01 0.000000000000e+00 
6.002166548222e+01 0.000000000000e+00 
6.028267608847e+01 0.000000000000e+00 
6.054107658906e+01 0.000000000000e+00 
6.079689308549e+01 0.000000000000e+00 
6.105015141669e+01 0.000000000000e+00 
6.130087716427e+01 0.000000000000e+00 
6.154909565504e+01 0.000000000000e+00 
6.179483196088e+01 0.000000000000e+00 
6.203811090381e+01 0.000000000000e+00 
6.227895705841e+01 0.000000000000e+00 
6.251739475150e+01 0.000000000000e+00 
6.275344806711e+01 0.000000000000e+00 
6.298714084866e+01 0.000000000000e+00 
6.321849670123e+01 0.000000000000e+00 
6.344753899625e+01 0.000000000000e+00 
6.367429086840e+01 0.000000000000e+00 
6.389877522292e+01 0.000000000000e+00 
6.412101473491e+01 0.000000000000e+00 
6.434103185144e+01 0.000000000000e+00 
6.455884879594e+01 0.000000000000e+00 
6.477448757019e+01 0.000000000000e+00 
6.498796995604e+01 0.000000000000e+00 
6.519931751727e+01 0.000000000000e+00 
6.540855160387e+01 0.000000000000e+00 
6.561569335115e+01 0.000000000000e+00 
6.582076368139e+01 0.000000000000e+00 
6.602378330808e+01 0.000000000000e+00 
6.622477273747e+01 0.000000000000e+00 
6.642375227273e+01 0.000000000000e+00 
6.662074201276e+01 0.000000000000e+00 
6.681576185629e+01 0.000000000000e+00 
6.700883150327e+01 0.000000000000e+00 
6.719997045369e+01 0.000000000000e+00 
6.738919801387e+01 0.000000000000e+00 
6.757653329812e+01 0.000000000000e+00 
6.776199522971e+01 0.000000000000e+00 
6.794560254218e+01 0.000000000000e+00 
6.812737378045e+01 0.000000000000e+00 
6.830732730464e+01 0.000000000000e+00 
6.848548129370e+01 0.000000000000e+00 
6.866185374386e+01 0.000000000000e+00 
6.883646246967e+01 0.000000000000e+00 
6.900932510758e+01 0.000000000000e+00 
6.918045911954e+01 0.000000000000e+00 
6.934988179121e+01 0.000000000000e+00 
6.951761023554e+01 0.000000000000e+00 
6.968366139616e+01 0.000000000000e+00 
6.984805204558e+01 0.000000000000e+00 
7.001079878860e+01 0.000000000000e+00 
7.017191806303e+01 0.000000000000e+00 
7.033142614565e+01 0.000000000000e+00 
7.048933914754e+01 0.000000000000e+00 
7.064567301752e+01 0.000000000000e+00 
7.080044355043e+01 0.000000000000e+00 
7.095366637990e+01 0.000000000000e+00 
7.110535698154e+01 0.000000000000e+00 
7.125553067607e+01 0.000000000000e+00 
7.140420263238e+01 0.000000000000e+00 
7.155138786800e+01 0.000000000000e+00 
7.169710125212e+01 0.000000000000e+00 
7.184135750329e+01 0.000000000000e+00 
7.198417118991e+01 0.000000000000e+00 
7.212555674093e+01 0.000000000000e+00 
7.226552843828e+01 0.000000000000e+00 
7.240410041719e+01 0.000000000000e+00 
7.254128667693e+01 0.000000000000e+00 
7.267710107563e+01 0.000000000000e+00 
7.281155732801e+01 0.000000000000e+00 
7.294466901597e+01 0.000000000000e+00 
7.307644958863e+01 0.000000000000e+00 
7.320691235723e+01 0.000000000000e+00 
7.333607049782e+01 0.000000000000e+00 
7.346393705661e+01 0.000000000000e+00 
7.359052494988e+01 0.000000000000e+00 
7.371584696401e+01 0.000000000000e+00 
7.383991575810e+01 0.000000000000e+00 
7.396274386385e+01 0.000000000000e+00 
7.408434368811e+01 0.000000000000e+00 
7.420472751541e+01 0.000000000000e+00 
7.432390750514e+01 0.000000000000e+00 
7.444189569409e+01 0.000000000000e+00 
7.455870400145e+01 0.000000000000e+00 
7.467434422598e+01 0.000000000000e+00 
7.478882804840e+01 0.000000000000e+00 
7.490216703113e+01 0.000000000000e+00 
7.501437262329e+01 0.000000000000e+00 
7.512545616027e+01 0.000000000000e+00 
7.523542886091e+01 0.000000000000e+00 
7.534430183494e+01 0.000000000000e+00 
7.545208607999e+01 0.000000000000e+00 
7.555879248118e+01 0.000000000000e+00 
7.566443181865e+01 0.000000000000e+00 
7.576901476432e+01 0.000000000000e+00 
7.587255187898e+01 0.000000000000e+00 
7.597505362222e+01 0.000000000000e+00 
7.607653034926e+01 0.000000000000e+00 
7.617699230783e+01 0.000000000000e+00 
7.627644964817e+01 0.000000000000e+00 
7.637491241707e+01 0.000000000000e+00 
7.647239055742e+01 0.000000000000e+00 
7.656889391540e+01 0.000000000000e+00 
7.666443223987e+01 0.000000000000e+00 
7.675901518169e+01 0.000000000000e+00 
7.685265229305e+01 0.000000000000e+00 
7.694535303207e+01 0.000000000000e+00 
7.703712676465e+01 0.000000000000e+00 
7.712798276112e+01 0.000000000000e+00 
7.721793019815e+01 0.000000000000e+00 
7.730697816061e+01 0.000000000000e+00 
7.739513564338e+01 0.000000000000e+00 
7.748241155054e+01 0.000000000000e+00 
7.756881469721e+01 0.000000000000e+00 
7.765435381391e+01 0.000000000000e+00 
7.773903754044e+01 0.000000000000e+00 
7.782287442770e+01 0.000000000000e+00 
7.790587294463e+01 0.000000000000e+00 
7.798804147726e+01 0.000000000000e+00 
7.806938832520e+01 0.000000000000e+00 
7.814992170592e+01 0.000000000000e+00 
7.822964975376e+01 0.000000000000e+00 
7.830858051907e+01 0.000000000000e+00 
7.838672197498e+01 0.000000000000e+00 
7.846408201640e+01 0.000000000000e+00 
7.854066845899e+01 0.000000000000e+00 
7.861648903811e+01 0.000000000000e+00 
7.869155141043e+01 0.000000000000e+00 
7.876586315809e+01 0.000000000000e+00 
7.883943179019e+01 0.000000000000e+00 
 TITLE = "Profiles along polylines"
 VARIABLES = "DIST" "HEAD" 
 ZONE T="TIME=1.797693134862e+308"
4.383943179019e+01 3.215140747134e+01 
4.426226473446e+01 3.215049985183e+01 
4.468086935160e+01 3.214960351901e+01 
4.509528792147e+01 3.214871828524e+01 
4.550556230549e+01 3.214784396669e+01 
4.591173394715e+01 3.214698038337e+01 
4.631384387257e+01 3.214612735902e+01 
4.671193269882e+01 3.214528472113e+01 
4.710604063683e+01 3.214445230083e+01 
4.749620749431e+01 3.214362993285e+01 
4.788247268118e+01 3.214281745551e+01 
4.826487521747e+01 3.214201471058e+01 
4.864345372811e+01 3.214122154328e+01 
4.901824645345e+01 3.214043780218e+01 
4.938929125160e+01 3.213966333916e+01 
4.975662560097e+01 3.213889800932e+01 
5.012028660773e+01 3.213814167095e+01 
5.048031100291e+01 3.213739418541e+01 
5.083673515502e+01 3.213665541710e+01 
5.118959506689e+01 3.213592523339e+01 
5.153892638036e+01 3.213520350452e+01 
5.188476438085e+01 3.213449010359e+01 
5.222714399929e+01 3.213378490644e+01 
5.256609982173e+01 3.213308779161e+01 
5.290166608587e+01 3.213239864025e+01 
5.323387668797e+01 3.213171733609e+01 
5.356276518446e+01 3.213104376535e+01 
5.388836479611e+01 3.213037781670e+01 
5.421070841210e+01 3.212971938115e+01 
5.452982859145e+01 3.212906835206e+01 
5.484575756957e+01 3.212842462500e+01 
5.515852725692e+01 3.212778809776e+01 
5.546816924811e+01 3.212715867025e+01 
5.577471482033e+01 3.212653624446e+01 
5.607819493453e+01 3.212592072441e+01 
5.637864024690e+01 3.212531201606e+01 
5.667608110711e+01 3.212471002730e+01 
5.697054755929e+01 3.212411466788e+01 
5.726206934807e+01 3.212352584936e+01 
5.755067591933e+01 3.212294348505e+01 
5.783639642357e+01 3.212236749000e+01 
5.811925972180e+01 3.212179778088e+01 
5.839929438608e+01 3.212123427602e+01 
5.867652870272e+01 3.212067689531e+01 
5.895099067793e+01 3.212012556015e+01 
5.922270803566e+01 3.211958019345e+01 
5.949170822058e+01 3.211904071956e+01 
5.975801840361e+01 3.211850706426e+01 
6.002166548222e+01 3.211797915466e+01 
6.028267608847e+01 3.211745691923e+01 
6.054107658906e+01 3.211694028771e+01 
6.079689308549e+01 3.211642919112e+01 
6.105015141669e+01 3.211592356169e+01 
6.130087716427e+01 3.211542333284e+01 
6.154909565504e+01 3.211492843914e+01 
6.179483196088e+01 3.211443881632e+01 
6.203811090381e+01 3.211395440117e+01 
6.227895705841e+01 3.211347513156e+01 
6.251739475150e+01 3.211300094639e+01 
6.275344806711e+01 3.211253178558e+01 
6.298714084866e+01 3.211206759003e+01 
6.321849670123e+01 3.211160830159e+01 
6.344753899625e+01 3.211115386305e+01 
6.367429086840e+01 3.211070421809e+01 
6.389877522292e+01 3.211025931129e+01 
6.412101473491e+01 3.210981908809e+01 
6.434103185144e+01 3.210938349477e+01 
6.455884879594e+01 3.210895247842e+01 
6.477448757019e+01 3.210852598693e+01 
6.498796995604e+01 3.210810396897e+01 
6.519931751727e+01 3.210768637396e+01 
6.540855160387e+01 3.210727315207e+01 
6.561569335115e+01 3.210686425417e+01 
6.582076368139e+01 3.210645963188e+01 
6.602378330808e+01 3.210605923745e+01 
6.622477273747e+01 3.210566302385e+01 
6.642375227273e+01 3.210527094468e+01 
6.662074201276e+01 3.210488295418e+01 
6.681576185629e+01 3.210449900723e+01 
6.700883150327e+01 3.210411905930e+01 
6.719997045369e+01 3.210374306649e+01 
6.738919801387e+01 3.210337098547e+01 
6.757653329812e+01 3.210300277347e+01 
6.776199522971e+01 3.210263838831e+01 
6.794560254218e+01 3.210227778832e+01 
6.812737378045e+01 3.210192093240e+01 
6.830732730464e+01 3.210156777997e+01 
6.848548129370e+01 3.210121829096e+01 
6.866185374386e+01 3.210087242580e+01 
6.883646246967e+01 3.210053014542e+01 
6.900932510758e+01 3.210019141126e+01 
6.918045911954e+01 3.209985618519e+01 
6.934988179121e+01 3.209952442959e+01 
6.951761023554e+01 3.209919610728e+01 
6.968366139616e+01 3.209887118152e+01 
6.984805204558e+01 3.209854961604e+01 
7.001079878860e+01 3.209823137500e+01 
7.017191806303e+01 3.209791642295e+01 
7.033142614565e+01 3.209760472491e+01 
7.048933914754e+01 3.209729624629e+01 
7.064567301752e+01 3.209699095289e+01 
7.080044355043e+01 3.209668881094e+01 
7.095366637990e+01 3.209638978703e+01 
7.110535698154e+01 3.209609384817e+01 
7.125553067607e+01 3.209580096172e+01 
7.140420263238e+01 3.209551109544e+01 
7.155138786800e+01 3.209522421744e+01 
7.169710125212e+01 3.209494029620e+01 
7.184135750329e+01 3.209465930054e+01 
7.198417118991e+01 3.209438119967e+01 
7.212555674093e+01 3.209410596309e+01 
7.226552843828e+01 3.209383356070e+01 
7.240410041719e+01 3.209356396271e+01 
7.254128667693e+01 3.209329713965e+01 
7.267710107563e+01 3.209303306239e+01 
7.281155732801e+01 3.209277170214e+01 
7.294466901597e+01 3.209251303039e+01 
7.307644958863e+01 3.209225701898e+01 
7.320691235723e+01 3.209200364003e+01 
7.333607049782e+01 3.209175286598e+01 
7.346393705661e+01 3.209150466958e+01 
7.359052494988e+01 3.209125902387e+01 
7.371584696401e+01 3.209101590217e+01 
7.383991575810e+01 3.209077527811e+01 
7.396274386385e+01 3.209053712559e+01 
7.408434368811e+01 3.209030141881e+01 
7.420472751541e+01 3.209006813223e+01 
7.432390750514e+01 3.208983724061e+01 
7.444189569409e+01 3.208960871895e+01 
7.455870400145e+01 3.208938254255e+01 
7.467434422598e+01 3.208915868695e+01 
7.478882804840e+01 3.208893712797e+01 
7.490216703113e+01 3.208871784169e+01 
7.501437262329e+01 3.208850080444e+01 
7.512545616027e+01 3.208828599279e+01 
7.523542886091e+01 3.208807338359e+01 
7.534430183494e+01 3.208786295391e+01 
7.545208607999e+01 3.208765468107e+01 
7.555879248118e+01 3.208744854265e+01 
7.566443181865e+01 3.208724451645e+01 
7.576901476432e+01 3.208704258051e+01 
7.587255187898e+01 3.208684271311e+01 
7.597505362222e+01 3.208664489275e+01 
7.607653034926e+01 3.208644909816e+01 
7.617699230783e+01 3.208625530831e+01 
7.627644964817e+01 3.208606350238e+01 
7.637491241707e+01 3.208587365976e+01 
7.647239055742e+01 3.208568576009e+01 
7.656889391540e+01 3.208549978320e+01 
7.666443223987e+01 3.208531570914e+01 
7.675901518169e+01 3.208513351817e+01 
7.685265229305e+01 3.208495319076e+01 
7.694535303207e+01 3.208477470759e+01 
7.703712676465e+01 3.208459804953e+01 
7.712798276112e+01 3.208442319766e+01 
7.721793019815e+01 3.208425013327e+01 
7.730697816061e+01 3.208407883783e+01 
7.739513564338e+01 3.208390929301e+01 
7.748241155054e+01 3.208374148070e+01 
7.756881469721e+01 3.208357538293e+01 
7.765435381391e+01 3.208341098196e+01 
7.773903754044e+01 3.208324826021e+01 
7.782287442770e+01 3.208308720032e+01 
7.790587294463e+01 3.208292778507e+01 
7.798804147726e+01 3.208276999746e+01 
7.806938832520e+01 3.208261382063e+01 
7.814992170592e+01 3.208245923793e+01 
7.822964975376e+01 3.208230623288e+01 
7.830858051907e+01 3.208215478916e+01 
7.838672197498e+01 3.208200489064e+01 
7.846408201640e+01 3.208185652134e+01 
7.854066845899e+01 3.208170966546e+01 
7.861648903811e+01 3.208156430738e+01 
7.869155141043e+01 3.208142043162e+01 
7.876586315809e+01 3.208127802289e+01 
7.883943179019e+01 3.208113706604e+01 
