 TITLE = "Profiles along polylines"
 VARIABLES = "DIST" "HEAD" 
 ZONE T="TIME=0.000000000000e+00"
1.048096524000e+01 0.000000000000e+00 
1.058613991828e+01 0.000000000000e+00 
1.090379818426e+01 0.000000000000e+00 
1.100897286255e+01 0.000000000000e+00 
1.132240280140e+01 0.000000000000e+00 
1.142757747969e+01 0.000000000000e+00 
1.173682137127e+01 0.000000000000e+00 
1.184199604956e+01 0.000000000000e+00 
1.214709575529e+01 0.000000000000e+00 
1.225227043358e+01 0.000000000000e+00 
1.255326739695e+01 0.000000000000e+00 
1.265844207523e+01 0.000000000000e+00 
1.295537732237e+01 0.000000000000e+00 
1.306055200066e+01 0.000000000000e+00 
1.335346614862e+01 0.000000000000e+00 
1.345864082691e+01 0.000000000000e+00 
1.374757408663e+01 0.000000000000e+00 
1.385274876492e+01 0.000000000000e+00 
1.413774094411e+01 0.000000000000e+00 
1.424291562240e+01 0.000000000000e+00 
1.452400613097e+01 0.000000000000e+00 
1.462918080926e+01 0.000000000000e+00 
1.490640866727e+01 0.000000000000e+00 
1.501158334555e+01 0.000000000000e+00 
1.528498717791e+01 0.000000000000e+00 
1.539016185619e+01 0.000000000000e+00 
1.565977990325e+01 0.000000000000e+00 
1.576495458154e+01 0.000000000000e+00 
1.603082470140e+01 0.000000000000e+00 
1.613599937968e+01 0.000000000000e+00 
1.639815905077e+01 0.000000000000e+00 
1.650333372906e+01 0.000000000000e+00 
1.676182005753e+01 0.000000000000e+00 
1.686699473582e+01 0.000000000000e+00 
1.712184445271e+01 0.000000000000e+00 
1.722701913099e+01 0.000000000000e+00 
1.747826860482e+01 0.000000000000e+00 
1.758344328311e+01 0.000000000000e+00 
1.783112851668e+01 0.000000000000e+00 
1.793630319497e+01 0.000000000000e+00 
1.818045983015e+01 0.000000000000e+00 
1.828563450844e+01 0.000000000000e+00 
1.852629783064e+01 0.000000000000e+00 
1.863147250893e+01 0.000000000000e+00 
1.886867744908e+01 0.000000000000e+00 
1.897385212737e+01 0.000000000000e+00 
1.920763327153e+01 0.000000000000e+00 
1.931280794981e+01 0.000000000000e+00 
1.954319953566e+01 0.000000000000e+00 
1.964837421395e+01 0.000000000000e+00 
1.987541013777e+01 0.000000000000e+00 
1.998058481605e+01 0.000000000000e+00 
2.020429863425e+01 0.000000000000e+00 
2.030947331254e+01 0.000000000000e+00 
2.052989824590e+01 0.000000000000e+00 
2.063507292419e+01 0.000000000000e+00 
2.085224186189e+01 0.000000000000e+00 
2.095741654018e+01 0.000000000000e+00 
2.117136204124e+01 0.000000000000e+00 
2.127653671953e+01 0.000000000000e+00 
2.148729101936e+01 0.000000000000e+00 
2.159246569764e+01 0.000000000000e+00 
2.180006070671e+01 0.000000000000e+00 
2.190523538499e+01 0.000000000000e+00 
2.210970269790e+01 0.000000000000e+00 
2.221487737618e+01 0.000000000000e+00 
2.241624827011e+01 0.000000000000e+00 
2.252142294840e+01 0.000000000000e+00 
2.271972838431e+01 0.000000000000e+00 
2.282490306260e+01 0.000000000000e+00 
2.302017369668e+01 0.000000000000e+00 
2.312534837497e+01 0.000000000000e+00 
2.331761455689e+01 0.000000000000e+00 
2.342278923518e+01 0.000000000000e+00 
2.361208100908e+01 0.000000000000e+00 
2.371725568737e+01 0.000000000000e+00 
2.390360279786e+01 0.000000000000e+00 
2.400877747615e+01 0.000000000000e+00 
2.419220936912e+01 0.000000000000e+00 
2.429738404740e+01 0.000000000000e+00 
2.447792987336e+01 0.000000000000e+00 
2.458310455164e+01 0.000000000000e+00 
2.476079317159e+01 0.000000000000e+00 
2.486596784987e+01 0.000000000000e+00 
2.504082783586e+01 0.000000000000e+00 
2.514600251415e+01 0.000000000000e+00 
2.531806215250e+01 0.000000000000e+00 
2.542323683079e+01 0.000000000000e+00 
2.559252412771e+01 0.000000000000e+00 
2.569769880600e+01 0.000000000000e+00 
2.586424148544e+01 0.000000000000e+00 
2.596941616373e+01 0.000000000000e+00 
2.613324167036e+01 0.000000000000e+00 
2.623841634865e+01 0.000000000000e+00 
2.639955185339e+01 0.000000000000e+00 
2.650472653168e+01 0.000000000000e+00 
2.666319893200e+01 0.000000000000e+00 
2.676837361029e+01 0.000000000000e+00 
2.692420953825e+01 0.000000000000e+00 
2.702938421654e+01 0.000000000000e+00 
2.718261003884e+01 0.000000000000e+00 
2.728778471712e+01 0.000000000000e+00 
2.743842653527e+01 0.000000000000e+00 
2.754360121356e+01 0.000000000000e+00 
2.769168486646e+01 0.000000000000e+00 
2.779685954475e+01 0.000000000000e+00 
2.794241061405e+01 0.000000000000e+00 
2.804758529234e+01 0.000000000000e+00 
2.819062910482e+01 0.000000000000e+00 
2.829580378311e+01 0.000000000000e+00 
2.843636541065e+01 0.000000000000e+00 
2.854154008894e+01 0.000000000000e+00 
2.867964435359e+01 0.000000000000e+00 
2.878481903187e+01 0.000000000000e+00 
2.892049050819e+01 0.000000000000e+00 
2.902566518648e+01 0.000000000000e+00 
2.915892820128e+01 0.000000000000e+00 
2.926410287957e+01 0.000000000000e+00 
2.939498151689e+01 0.000000000000e+00 
2.950015619518e+01 0.000000000000e+00 
2.962867429844e+01 0.000000000000e+00 
2.973384897672e+01 0.000000000000e+00 
2.986003015101e+01 0.000000000000e+00 
2.996520482930e+01 0.000000000000e+00 
3.008907244603e+01 0.000000000000e+00 
3.019424712432e+01 0.000000000000e+00 
3.031582431819e+01 0.000000000000e+00 
3.042099899647e+01 0.000000000000e+00 
3.054030867270e+01 0.000000000000e+00 
3.064548335099e+01 0.000000000000e+00 
3.076254818470e+01 0.000000000000e+00 
3.086772286299e+01 0.000000000000e+00 
3.098256530122e+01 0.000000000000e+00 
3.108773997951e+01 0.000000000000e+00 
3.120038224572e+01 0.000000000000e+00 
3.130555692401e+01 0.000000000000e+00 
3.141602101997e+01 0.000000000000e+00 
3.152119569826e+01 0.000000000000e+00 
3.162950340583e+01 0.000000000000e+00 
3.173467808412e+01 0.000000000000e+00 
3.184085096706e+01 0.000000000000e+00 
3.194602564534e+01 0.000000000000e+00 
3.205008505366e+01 0.000000000000e+00 
3.215525973195e+01 0.000000000000e+00 
3.225722680094e+01 0.000000000000e+00 
3.236240147923e+01 0.000000000000e+00 
3.246229713118e+01 0.000000000000e+00 
3.256747180946e+01 0.000000000000e+00 
3.266531675787e+01 0.000000000000e+00 
3.277049143615e+01 0.000000000000e+00 
3.286630618726e+01 0.000000000000e+00 
3.297148086554e+01 0.000000000000e+00 
3.306528572252e+01 0.000000000000e+00 
3.317046040081e+01 0.000000000000e+00 
3.326227546255e+01 0.000000000000e+00 
3.336745014084e+01 0.000000000000e+00 
3.345729530608e+01 0.000000000000e+00 
3.356246998436e+01 0.000000000000e+00 
3.365036495305e+01 0.000000000000e+00 
3.375553963134e+01 0.000000000000e+00 
3.384150390348e+01 0.000000000000e+00 
3.394667858176e+01 0.000000000000e+00 
3.403073146366e+01 0.000000000000e+00 
3.413590614195e+01 0.000000000000e+00 
3.421806674791e+01 0.000000000000e+00 
3.432324142620e+01 0.000000000000e+00 
3.440352867951e+01 0.000000000000e+00 
3.450870335779e+01 0.000000000000e+00 
3.458713599197e+01 0.000000000000e+00 
3.469231067026e+01 0.000000000000e+00 
3.476890723025e+01 0.000000000000e+00 
3.487408190853e+01 0.000000000000e+00 
3.494886075443e+01 0.000000000000e+00 
3.505403543272e+01 0.000000000000e+00 
3.512701474349e+01 0.000000000000e+00 
3.523218942178e+01 0.000000000000e+00 
3.530338719365e+01 0.000000000000e+00 
3.540856187194e+01 0.000000000000e+00 
3.547799591946e+01 0.000000000000e+00 
3.558317059775e+01 0.000000000000e+00 
3.565085855738e+01 0.000000000000e+00 
3.575603323566e+01 0.000000000000e+00 
3.582199256933e+01 0.000000000000e+00 
3.592716724762e+01 0.000000000000e+00 
3.599141524100e+01 0.000000000000e+00 
3.609658991929e+01 0.000000000000e+00 
3.615914368533e+01 0.000000000000e+00 
3.626431836362e+01 0.000000000000e+00 
3.632519484595e+01 0.000000000000e+00 
3.643036952424e+01 0.000000000000e+00 
3.648958549537e+01 0.000000000000e+00 
3.659476017366e+01 0.000000000000e+00 
3.665233223840e+01 0.000000000000e+00 
3.675750691669e+01 0.000000000000e+00 
3.681345151283e+01 0.000000000000e+00 
3.691862619112e+01 0.000000000000e+00 
3.697295959545e+01 0.000000000000e+00 
3.707813427373e+01 0.000000000000e+00 
3.713087259734e+01 0.000000000000e+00 
3.723604727563e+01 0.000000000000e+00 
3.728720646731e+01 0.000000000000e+00 
3.739238114560e+01 0.000000000000e+00 
3.744197700022e+01 0.000000000000e+00 
3.754715167851e+01 0.000000000000e+00 
3.759519982969e+01 0.000000000000e+00 
3.770037450798e+01 0.000000000000e+00 
3.774689043134e+01 0.000000000000e+00 
3.785206510963e+01 0.000000000000e+00 
3.789706412586e+01 0.000000000000e+00 
3.800223880415e+01 0.000000000000e+00 
3.804573608218e+01 0.000000000000e+00 
3.815091076047e+01 0.000000000000e+00 
3.819292131780e+01 0.000000000000e+00 
3.829809599609e+01 0.000000000000e+00 
3.833863470192e+01 0.000000000000e+00 
3.844380938020e+01 0.000000000000e+00 
3.848289095309e+01 0.000000000000e+00 
3.858806563138e+01 0.000000000000e+00 
3.862570463970e+01 0.000000000000e+00 
3.873087931799e+01 0.000000000000e+00 
3.876709019073e+01 0.000000000000e+00 
3.887226486902e+01 0.000000000000e+00 
3.890706188808e+01 0.000000000000e+00 
3.901223656636e+01 0.000000000000e+00 
3.904563386699e+01 0.000000000000e+00 
3.915080854528e+01 0.000000000000e+00 
3.918282012672e+01 0.000000000000e+00 
3.928799480501e+01 0.000000000000e+00 
3.931863452543e+01 0.000000000000e+00 
3.942380920371e+01 0.000000000000e+00 
3.945309077781e+01 0.000000000000e+00 
3.955826545609e+01 0.000000000000e+00 
3.958620246577e+01 0.000000000000e+00 
3.969137714405e+01 0.000000000000e+00 
3.971798303843e+01 0.000000000000e+00 
3.982315771672e+01 0.000000000000e+00 
3.984844580702e+01 0.000000000000e+00 
3.995362048531e+01 0.000000000000e+00 
3.997760394762e+01 0.000000000000e+00 
4.008277862591e+01 0.000000000000e+00 
4.010547050641e+01 0.000000000000e+00 
4.021064518470e+01 0.000000000000e+00 
4.023205839968e+01 0.000000000000e+00 
4.033723307796e+01 0.000000000000e+00 
4.035738041381e+01 0.000000000000e+00 
4.046255509210e+01 0.000000000000e+00 
4.048144920790e+01 0.000000000000e+00 
4.058662388619e+01 0.000000000000e+00 
4.060427731365e+01 0.000000000000e+00 
4.070945199193e+01 0.000000000000e+00 
4.072587713791e+01 0.000000000000e+00 
4.083105181620e+01 0.000000000000e+00 
4.084626096521e+01 0.000000000000e+00 
4.095143564350e+01 0.000000000000e+00 
4.096544095494e+01 0.000000000000e+00 
4.107061563323e+01 0.000000000000e+00 
4.108342914389e+01 0.000000000000e+00 
4.118860382218e+01 0.000000000000e+00 
4.120023745125e+01 0.000000000000e+00 
4.130541212954e+01 0.000000000000e+00 
4.131587767578e+01 0.000000000000e+00 
4.142105235407e+01 0.000000000000e+00 
4.143036149820e+01 0.000000000000e+00 
4.153553617649e+01 0.000000000000e+00 
4.154370048093e+01 0.000000000000e+00 
4.164887515922e+01 0.000000000000e+00 
4.165590607309e+01 0.000000000000e+00 
4.176108075138e+01 0.000000000000e+00 
4.176698961007e+01 0.000000000000e+00 
4.187216428836e+01 0.000000000000e+00 
4.187696231071e+01 0.000000000000e+00 
4.198213698900e+01 0.000000000000e+00 
4.198583528475e+01 0.000000000000e+00 
4.209100996303e+01 0.000000000000e+00 
4.209361952979e+01 0.000000000000e+00 
4.219879420808e+01 0.000000000000e+00 
4.220032593099e+01 0.000000000000e+00 
4.230550060927e+01 0.000000000000e+00 
4.230596526845e+01 0.000000000000e+00 
4.241054821413e+01 0.000000000000e+00 
4.241113994674e+01 0.000000000000e+00 
4.251408532878e+01 0.000000000000e+00 
4.251572289241e+01 0.000000000000e+00 
4.261658707203e+01 0.000000000000e+00 
4.261926000707e+01 0.000000000000e+00 
4.271806379906e+01 0.000000000000e+00 
4.272176175031e+01 0.000000000000e+00 
4.281852575764e+01 0.000000000000e+00 
4.282323847735e+01 0.000000000000e+00 
4.291798309798e+01 0.000000000000e+00 
4.292370043592e+01 0.000000000000e+00 
4.301644586688e+01 0.000000000000e+00 
4.302315777626e+01 0.000000000000e+00 
4.311392400722e+01 0.000000000000e+00 
4.312162054516e+01 0.000000000000e+00 
4.321042736520e+01 0.000000000000e+00 
4.321909868551e+01 0.000000000000e+00 
4.330596568968e+01 0.000000000000e+00 
4.331560204349e+01 0.000000000000e+00 
4.340054863150e+01 0.000000000000e+00 
4.341114036797e+01 0.000000000000e+00 
4.349418574286e+01 0.000000000000e+00 
4.350572330978e+01 0.000000000000e+00 
4.358688648187e+01 0.000000000000e+00 
4.359936042114e+01 0.000000000000e+00 
4.367866021445e+01 0.000000000000e+00 
4.369206116016e+01 0.000000000000e+00 
4.376951621092e+01 0.000000000000e+00 
4.378383489274e+01 0.000000000000e+00 
4.385946364796e+01 0.000000000000e+00 
4.387469088921e+01 0.000000000000e+00 
4.394851161042e+01 0.000000000000e+00 
4.396463832625e+01 0.000000000000e+00 
4.403666909318e+01 0.000000000000e+00 
4.405368628870e+01 0.000000000000e+00 
4.412394500034e+01 0.000000000000e+00 
4.414184377147e+01 0.000000000000e+00 
4.421034814701e+01 0.000000000000e+00 
4.422911967863e+01 0.000000000000e+00 
4.429588726371e+01 0.000000000000e+00 
4.431552282530e+01 0.000000000000e+00 
4.438057099024e+01 0.000000000000e+00 
4.440106194200e+01 0.000000000000e+00 
4.446440787750e+01 0.000000000000e+00 
4.448574566853e+01 0.000000000000e+00 
4.454740639443e+01 0.000000000000e+00 
4.456958255579e+01 0.000000000000e+00 
4.462957492707e+01 0.000000000000e+00 
4.465258107272e+01 0.000000000000e+00 
4.471092177501e+01 0.000000000000e+00 
4.473474960536e+01 0.000000000000e+00 
4.479145515572e+01 0.000000000000e+00 
4.481609645329e+01 0.000000000000e+00 
4.487118320357e+01 0.000000000000e+00 
4.489662983401e+01 0.000000000000e+00 
4.495011396888e+01 0.000000000000e+00 
4.497635788186e+01 0.000000000000e+00 
4.502825542479e+01 0.000000000000e+00 
4.505528864717e+01 0.000000000000e+00 
4.510561546621e+01 0.000000000000e+00 
4.513343010307e+01 0.000000000000e+00 
4.518220190880e+01 0.000000000000e+00 
4.521079014449e+01 0.000000000000e+00 
4.525802248791e+01 0.000000000000e+00 
4.528737658708e+01 0.000000000000e+00 
4.533308486023e+01 0.000000000000e+00 
4.536319716620e+01 0.000000000000e+00 
4.540739660789e+01 0.000000000000e+00 
4.543825953852e+01 0.000000000000e+00 
4.548096524000e+01 0.000000000000e+00 
4.551257128618e+01 0.000000000000e+00 
4.558613991828e+01 0.000000000000e+00 
 TITLE = "Profiles along polylines"
 VARIABLES = "DIST" "HEAD" 
 ZONE T="TIME=1.797693134862e+308"
1.048096524000e+01 3.371631576678e+01 
1.058613991828e+01 3.370894006236e+01 
1.090379818426e+01 3.371611635919e+01 
1.100897286255e+01 3.370874011673e+01 
1.132240280140e+01 3.371592086524e+01 
1.142757747969e+01 3.370854400745e+01 
1.173682137127e+01 3.371572920852e+01 
1.184199604956e+01 3.370835165410e+01 
1.214709575529e+01 3.371554130815e+01 
1.225227043358e+01 3.370816297851e+01 
1.255326739695e+01 3.371535708210e+01 
1.265844207523e+01 3.370797790387e+01 
1.295537732237e+01 3.371517644866e+01 
1.306055200066e+01 3.370779635445e+01 
1.335346614862e+01 3.371499932713e+01 
1.345864082691e+01 3.370761825560e+01 
1.374757408663e+01 3.371482563803e+01 
1.385274876492e+01 3.370744353382e+01 
1.413774094411e+01 3.371465530334e+01 
1.424291562240e+01 3.370727211684e+01 
1.452400613097e+01 3.371448824652e+01 
1.462918080926e+01 3.370710393368e+01 
1.490640866727e+01 3.371432439265e+01 
1.501158334555e+01 3.370693891471e+01 
1.528498717791e+01 3.371416366845e+01 
1.539016185619e+01 3.370677699172e+01 
1.565977990325e+01 3.371400600236e+01 
1.576495458154e+01 3.370661809789e+01 
1.603082470140e+01 3.371385132460e+01 
1.613599937968e+01 3.370646216785e+01 
1.639815905077e+01 3.371369956714e+01 
1.650333372906e+01 3.370630913770e+01 
1.676182005753e+01 3.371355066374e+01 
1.686699473582e+01 3.370615894498e+01 
1.712184445271e+01 3.371340454998e+01 
1.722701913099e+01 3.370601152870e+01 
1.747826860482e+01 3.371326116317e+01 
1.758344328311e+01 3.370586682928e+01 
1.783112851668e+01 3.371312044238e+01 
1.793630319497e+01 3.370572478861e+01 
1.818045983015e+01 3.371298232837e+01 
1.828563450844e+01 3.370558534995e+01 
1.852629783064e+01 3.371284676357e+01 
1.863147250893e+01 3.370544845798e+01 
1.886867744908e+01 3.371271369204e+01 
1.897385212737e+01 3.370531405873e+01 
1.920763327153e+01 3.371258305939e+01 
1.931280794981e+01 3.370518209954e+01 
1.954319953566e+01 3.371245481273e+01 
1.964837421395e+01 3.370505252907e+01 
1.987541013777e+01 3.371232890067e+01 
1.998058481605e+01 3.370492529725e+01 
2.020429863425e+01 3.371220527321e+01 
2.030947331254e+01 3.370480035524e+01 
2.052989824590e+01 3.371208388170e+01 
2.063507292419e+01 3.370467765539e+01 
2.085224186189e+01 3.371196467882e+01 
2.095741654018e+01 3.370455715125e+01 
2.117136204124e+01 3.371184761850e+01 
2.127653671953e+01 3.370443879748e+01 
2.148729101936e+01 3.371173265589e+01 
2.159246569764e+01 3.370432254985e+01 
2.180006070671e+01 3.371161974730e+01 
2.190523538499e+01 3.370420836521e+01 
2.210970269790e+01 3.371150885016e+01 
2.221487737618e+01 3.370409620143e+01 
2.241624827011e+01 3.371139992301e+01 
2.252142294840e+01 3.370398601741e+01 
2.271972838431e+01 3.371129292541e+01 
2.282490306260e+01 3.370387777300e+01 
2.302017369668e+01 3.371118781793e+01 
2.312534837497e+01 3.370377142903e+01 
2.331761455689e+01 3.371108456213e+01 
2.342278923518e+01 3.370366694724e+01 
2.361208100908e+01 3.371098312048e+01 
2.371725568737e+01 3.370356429024e+01 
2.390360279786e+01 3.371088345637e+01 
2.400877747615e+01 3.370346342155e+01 
2.419220936912e+01 3.371078553406e+01 
2.429738404740e+01 3.370336430548e+01 
2.447792987336e+01 3.371068931866e+01 
2.458310455164e+01 3.370326690721e+01 
2.476079317159e+01 3.371059477609e+01 
2.486596784987e+01 3.370317119267e+01 
2.504082783586e+01 3.371050187307e+01 
2.514600251415e+01 3.370307712859e+01 
2.531806215250e+01 3.371041057708e+01 
2.542323683079e+01 3.370298468243e+01 
2.559252412771e+01 3.371032085634e+01 
2.569769880600e+01 3.370289382238e+01 
2.586424148544e+01 3.371023267979e+01 
2.596941616373e+01 3.370280451734e+01 
2.613324167036e+01 3.371014601708e+01 
2.623841634865e+01 3.370271673691e+01 
2.639955185339e+01 3.371006083852e+01 
2.650472653168e+01 3.370263045133e+01 
2.666319893200e+01 3.370997711508e+01 
2.676837361029e+01 3.370254563154e+01 
2.692420953825e+01 3.370989481838e+01 
2.702938421654e+01 3.370246224905e+01 
2.718261003884e+01 3.370981392066e+01 
2.728778471712e+01 3.370238027604e+01 
2.743842653527e+01 3.370973439475e+01 
2.754360121356e+01 3.370229968527e+01 
2.769168486646e+01 3.370965621407e+01 
2.779685954475e+01 3.370222045009e+01 
2.794241061405e+01 3.370957935262e+01 
2.804758529234e+01 3.370214254441e+01 
2.819062910482e+01 3.370950378495e+01 
2.829580378311e+01 3.370206594270e+01 
2.843636541065e+01 3.370942948616e+01 
2.854154008894e+01 3.370199061999e+01 
2.867964435359e+01 3.370935643187e+01 
2.878481903187e+01 3.370191655181e+01 
2.892049050819e+01 3.370928459821e+01 
2.902566518648e+01 3.370184371424e+01 
2.915892820128e+01 3.370921396182e+01 
2.926410287957e+01 3.370177208383e+01 
2.939498151689e+01 3.370914449982e+01 
2.950015619518e+01 3.370170163765e+01 
2.962867429844e+01 3.370907618981e+01 
2.973384897672e+01 3.370163235322e+01 
2.986003015101e+01 3.370900900988e+01 
2.996520482930e+01 3.370156420855e+01 
3.008907244603e+01 3.370894293852e+01 
3.019424712432e+01 3.370149718211e+01 
3.031582431819e+01 3.370887795471e+01 
3.042099899647e+01 3.370143125280e+01 
3.054030867270e+01 3.370881403785e+01 
3.064548335099e+01 3.370136639997e+01 
3.076254818470e+01 3.370875116776e+01 
3.086772286299e+01 3.370130260339e+01 
3.098256530122e+01 3.370868932466e+01 
3.108773997951e+01 3.370123984324e+01 
3.120038224572e+01 3.370862848921e+01 
3.130555692401e+01 3.370117810012e+01 
3.141602101997e+01 3.370856864242e+01 
3.152119569826e+01 3.370111735503e+01 
3.162950340583e+01 3.370850976571e+01 
3.173467808412e+01 3.370105758935e+01 
3.184085096706e+01 3.370845184089e+01 
3.194602564534e+01 3.370099878484e+01 
3.205008505366e+01 3.370839485010e+01 
3.215525973195e+01 3.370094092363e+01 
3.225722680094e+01 3.370833877589e+01 
3.236240147923e+01 3.370088398824e+01 
3.246229713118e+01 3.370828360111e+01 
3.256747180946e+01 3.370082796151e+01 
3.266531675787e+01 3.370822930900e+01 
3.277049143615e+01 3.370077282665e+01 
3.286630618726e+01 3.370817588312e+01 
3.297148086554e+01 3.370071856721e+01 
3.306528572252e+01 3.370812330735e+01 
3.317046040081e+01 3.370066516707e+01 
3.326227546255e+01 3.370807156590e+01 
3.336745014084e+01 3.370061261043e+01 
3.345729530608e+01 3.370802064332e+01 
3.356246998436e+01 3.370056088183e+01 
3.365036495305e+01 3.370797052444e+01 
3.375553963134e+01 3.370050996611e+01 
3.384150390348e+01 3.370792119440e+01 
3.394667858176e+01 3.370045984840e+01 
3.403073146366e+01 3.370787263866e+01 
3.413590614195e+01 3.370041051417e+01 
3.421806674791e+01 3.370782484294e+01 
3.432324142620e+01 3.370036194915e+01 
3.440352867951e+01 3.370777779326e+01 
3.450870335779e+01 3.370031413936e+01 
3.458713599197e+01 3.370773147592e+01 
3.469231067026e+01 3.370026707113e+01 
3.476890723025e+01 3.370768587750e+01 
3.487408190853e+01 3.370022073104e+01 
3.494886075443e+01 3.370764098484e+01 
3.505403543272e+01 3.370017510594e+01 
3.512701474349e+01 3.370759678505e+01 
3.523218942178e+01 3.370013018296e+01 
3.530338719365e+01 3.370755326548e+01 
3.540856187194e+01 3.370008594947e+01 
3.547799591946e+01 3.370751041376e+01 
3.558317059775e+01 3.370004239312e+01 
3.565085855738e+01 3.370746821774e+01 
3.575603323566e+01 3.369999950179e+01 
3.582199256933e+01 3.370742666554e+01 
3.592716724762e+01 3.369995726360e+01 
3.599141524100e+01 3.370738574550e+01 
3.609658991929e+01 3.369991566692e+01 
3.615914368533e+01 3.370734544620e+01 
3.626431836362e+01 3.369987470035e+01 
3.632519484595e+01 3.370730575645e+01 
3.643036952424e+01 3.369983435272e+01 
3.648958549537e+01 3.370726666528e+01 
3.659476017366e+01 3.369979461308e+01 
3.665233223840e+01 3.370722816193e+01 
3.675750691669e+01 3.369975547071e+01 
3.681345151283e+01 3.370719023589e+01 
3.691862619112e+01 3.369971691508e+01 
3.697295959545e+01 3.370715287683e+01 
3.707813427373e+01 3.369967893591e+01 
3.713087259734e+01 3.370711607463e+01 
3.723604727563e+01 3.369964152309e+01 
3.728720646731e+01 3.370707981938e+01 
3.739238114560e+01 3.369960466673e+01 
3.744197700022e+01 3.370704410139e+01 
3.754715167851e+01 3.369956835714e+01 
3.759519982969e+01 3.370700891112e+01 
3.770037450798e+01 3.369953258482e+01 
3.774689043134e+01 3.370697423926e+01 
3.785206510963e+01 3.369949734045e+01 
3.789706412586e+01 3.370694007668e+01 
3.800223880415e+01 3.369946261491e+01 
3.804573608218e+01 3.370690641443e+01 
3.815091076047e+01 3.369942839926e+01 
3.819292131780e+01 3.370687324373e+01 
3.829809599609e+01 3.369939468474e+01 
3.833863470192e+01 3.370684055599e+01 
3.844380938020e+01 3.369936146274e+01 
3.848289095309e+01 3.370680834280e+01 
3.858806563138e+01 3.369932872486e+01 
3.862570463970e+01 3.370677659591e+01 
3.873087931799e+01 3.369929646285e+01 
3.876709019073e+01 3.370674530725e+01 
3.887226486902e+01 3.369926466861e+01 
3.890706188808e+01 3.370671446888e+01 
3.901223656636e+01 3.369923333421e+01 
3.904563386699e+01 3.370668407306e+01 
3.915080854528e+01 3.369920245190e+01 
3.918282012672e+01 3.370665411220e+01 
3.928799480501e+01 3.369917201404e+01 
3.931863452543e+01 3.370662457883e+01 
3.942380920371e+01 3.369914201318e+01 
3.945309077781e+01 3.370659546568e+01 
3.955826545609e+01 3.369911244200e+01 
3.958620246577e+01 3.370656676560e+01 
3.969137714405e+01 3.369908329332e+01 
3.971798303843e+01 3.370653847159e+01 
3.982315771672e+01 3.369905456011e+01 
3.984844580702e+01 3.370651057679e+01 
3.995362048531e+01 3.369902623547e+01 
3.997760394762e+01 3.370648307448e+01 
4.008277862591e+01 3.369899831265e+01 
4.010547050641e+01 3.370645595809e+01 
4.021064518470e+01 3.369897078500e+01 
4.023205839968e+01 3.370642922115e+01 
4.033723307796e+01 3.369894364604e+01 
4.035738041381e+01 3.370640285736e+01 
4.046255509210e+01 3.369891688939e+01 
4.048144920790e+01 3.370637686052e+01 
4.058662388619e+01 3.369889050881e+01 
4.060427731365e+01 3.370635122457e+01 
4.070945199193e+01 3.369886449815e+01 
4.072587713791e+01 3.370632594357e+01 
4.083105181620e+01 3.369883885142e+01 
4.084626096521e+01 3.370630101169e+01 
4.095143564350e+01 3.369881356271e+01 
4.096544095494e+01 3.370627642322e+01 
4.107061563323e+01 3.369878862625e+01 
4.108342914389e+01 3.370625217258e+01 
4.118860382218e+01 3.369876403637e+01 
4.120023745125e+01 3.370622825429e+01 
4.130541212954e+01 3.369873978749e+01 
4.131587767578e+01 3.370620466297e+01 
4.142105235407e+01 3.369871587418e+01 
4.143036149820e+01 3.370618139336e+01 
4.153553617649e+01 3.369869229107e+01 
4.154370048093e+01 3.370615844031e+01 
4.164887515922e+01 3.369866903291e+01 
4.165590607309e+01 3.370613579875e+01 
4.176108075138e+01 3.369864609454e+01 
4.176698961007e+01 3.370611346374e+01 
4.187216428836e+01 3.369862347092e+01 
4.187696231071e+01 3.370609143040e+01 
4.198213698900e+01 3.369860115708e+01 
4.198583528475e+01 3.370606969399e+01 
4.209100996303e+01 3.369857914815e+01 
4.209361952979e+01 3.370604824981e+01 
4.219879420808e+01 3.369855743936e+01 
4.220032593099e+01 3.370602709330e+01 
4.230550060927e+01 3.369853602601e+01 
4.230596526845e+01 3.370600621996e+01 
4.241054821413e+01 3.370598562539e+01 
4.241113994674e+01 3.369851490350e+01 
4.251408532878e+01 3.370596530526e+01 
4.251572289241e+01 3.369849406731e+01 
4.261658707203e+01 3.370594525533e+01 
4.261926000707e+01 3.369847351301e+01 
4.271806379906e+01 3.370592547145e+01 
4.272176175031e+01 3.369845323625e+01 
4.281852575764e+01 3.370590594953e+01 
4.282323847735e+01 3.369843323275e+01 
4.291798309798e+01 3.370588668557e+01 
4.292370043592e+01 3.369841349831e+01 
4.301644586688e+01 3.370586767565e+01 
4.302315777626e+01 3.369839402881e+01 
4.311392400722e+01 3.370584891589e+01 
4.312162054516e+01 3.369837482021e+01 
4.321042736520e+01 3.370583040253e+01 
4.321909868551e+01 3.369835586853e+01 
4.330596568968e+01 3.370581213185e+01 
4.331560204349e+01 3.369833716987e+01 
4.340054863150e+01 3.370579410019e+01 
4.341114036797e+01 3.369831872040e+01 
4.349418574286e+01 3.370577630398e+01 
4.350572330978e+01 3.369830051635e+01 
4.358688648187e+01 3.370575873971e+01 
4.359936042114e+01 3.369828255402e+01 
4.367866021445e+01 3.370574140392e+01 
4.369206116016e+01 3.369826482979e+01 
4.376951621092e+01 3.370572429323e+01 
4.378383489274e+01 3.369824734008e+01 
4.385946364796e+01 3.370570740430e+01 
4.387469088921e+01 3.369823008138e+01 
4.394851161042e+01 3.370569073389e+01 
4.396463832625e+01 3.369821305026e+01 
4.403666909318e+01 3.370567427878e+01 
4.405368628870e+01 3.369819624332e+01 
4.412394500034e+01 3.370565803582e+01 
4.414184377147e+01 3.369817965724e+01 
4.421034814701e+01 3.370564200192e+01 
4.422911967863e+01 3.369816328875e+01 
4.429588726371e+01 3.370562617405e+01 
4.431552282530e+01 3.369814713463e+01 
4.438057099024e+01 3.370561054924e+01 
4.440106194200e+01 3.369813119172e+01 
4.446440787750e+01 3.370559512456e+01 
4.448574566853e+01 3.369811545692e+01 
4.454740639443e+01 3.370557989714e+01 
4.456958255579e+01 3.369809992716e+01 
4.462957492707e+01 3.370556486418e+01 
4.465258107272e+01 3.369808459945e+01 
4.471092177501e+01 3.370555002291e+01 
4.473474960536e+01 3.369806947083e+01 
4.479145515572e+01 3.370553537063e+01 
4.481609645329e+01 3.369805453839e+01 
4.487118320357e+01 3.370552090469e+01 
4.489662983401e+01 3.369803979926e+01 
4.495011396888e+01 3.370550662248e+01 
4.497635788186e+01 3.369802525064e+01 
4.502825542479e+01 3.370549252146e+01 
4.505528864717e+01 3.369801088975e+01 
4.510561546621e+01 3.370547859914e+01 
4.513343010307e+01 3.369799671385e+01 
4.518220190880e+01 3.370546485308e+01 
4.521079014449e+01 3.369798272028e+01 
4.525802248791e+01 3.370545128087e+01 
4.528737658708e+01 3.369796890636e+01 
4.533308486023e+01 3.370543788020e+01 
4.536319716620e+01 3.369795526950e+01 
4.540739660789e+01 3.370542464876e+01 
4.543825953852e+01 3.369794180713e+01 
4.548096524000e+01 3.370541158435e+01 
4.551257128618e+01 3.369792851670e+01 
4.558613991828e+01 3.369791539574e+01 
