 TITLE = "Profiles along polylines"
 VARIABLES = "DIST" "HEAD" 
 ZONE T="TIME=0.000000000000e+00"
1.474568993243e+00 0.000000000000e+00 
1.500688179702e+00 0.000000000000e+00 
1.526886376003e+00 0.000000000000e+00 
1.897401937509e+00 0.000000000000e+00 
1.923521123967e+00 0.000000000000e+00 
1.949719320268e+00 0.000000000000e+00 
2.316006554648e+00 0.000000000000e+00 
2.342125741106e+00 0.000000000000e+00 
2.368323937407e+00 0.000000000000e+00 
2.730425124517e+00 0.000000000000e+00 
2.756544310976e+00 0.000000000000e+00 
2.782742507277e+00 0.000000000000e+00 
3.140699508537e+00 0.000000000000e+00 
3.166818694995e+00 0.000000000000e+00 
3.193016891296e+00 0.000000000000e+00 
3.546871150189e+00 0.000000000000e+00 
3.572990336648e+00 0.000000000000e+00 
3.599188532949e+00 0.000000000000e+00 
3.948981075611e+00 0.000000000000e+00 
3.975100262070e+00 0.000000000000e+00 
4.001298458371e+00 0.000000000000e+00 
4.347069901860e+00 0.000000000000e+00 
4.373189088318e+00 0.000000000000e+00 
4.399387284620e+00 0.000000000000e+00 
4.741177839873e+00 0.000000000000e+00 
4.767297026331e+00 0.000000000000e+00 
4.793495222633e+00 0.000000000000e+00 
5.131344697354e+00 0.000000000000e+00 
5.157463883812e+00 0.000000000000e+00 
5.183662080114e+00 0.000000000000e+00 
5.517609884214e+00 0.000000000000e+00 
5.543729070672e+00 0.000000000000e+00 
5.569927266973e+00 0.000000000000e+00 
5.900012420505e+00 0.000000000000e+00 
5.926131606964e+00 0.000000000000e+00 
5.952329803265e+00 0.000000000000e+00 
6.278590931144e+00 0.000000000000e+00 
6.304710117602e+00 0.000000000000e+00 
6.330908313904e+00 0.000000000000e+00 
6.653383656488e+00 0.000000000000e+00 
6.679502842947e+00 0.000000000000e+00 
6.705701039248e+00 0.000000000000e+00 
7.024428454633e+00 0.000000000000e+00 
7.050547641092e+00 0.000000000000e+00 
7.076745837393e+00 0.000000000000e+00 
7.391762804005e+00 0.000000000000e+00 
7.417881990464e+00 0.000000000000e+00 
7.444080186765e+00 0.000000000000e+00 
7.755423810767e+00 0.000000000000e+00 
7.781542997225e+00 0.000000000000e+00 
7.807741193526e+00 0.000000000000e+00 
8.115448205943e+00 0.000000000000e+00 
8.141567392401e+00 0.000000000000e+00 
8.167765588703e+00 0.000000000000e+00 
8.471872358055e+00 0.000000000000e+00 
8.497991544513e+00 0.000000000000e+00 
8.524189740815e+00 0.000000000000e+00 
8.824732269915e+00 0.000000000000e+00 
8.850851456373e+00 0.000000000000e+00 
8.877049652674e+00 0.000000000000e+00 
9.174063583386e+00 0.000000000000e+00 
9.200182769845e+00 0.000000000000e+00 
9.226380966146e+00 0.000000000000e+00 
9.519901583878e+00 0.000000000000e+00 
9.546020770336e+00 0.000000000000e+00 
9.572218966637e+00 0.000000000000e+00 
9.862281202312e+00 0.000000000000e+00 
9.888400388771e+00 0.000000000000e+00 
9.914598585072e+00 0.000000000000e+00 
1.020123702476e+01 0.000000000000e+00 
1.022735621122e+01 0.000000000000e+00 
1.025355440752e+01 0.000000000000e+00 
1.053680328889e+01 0.000000000000e+00 
1.056292247535e+01 0.000000000000e+00 
1.058912067165e+01 0.000000000000e+00 
1.086901389100e+01 0.000000000000e+00 
1.089513307746e+01 0.000000000000e+00 
1.092133127376e+01 0.000000000000e+00 
1.119790238748e+01 0.000000000000e+00 
1.122402157394e+01 0.000000000000e+00 
1.125021977024e+01 0.000000000000e+00 
1.152350199913e+01 0.000000000000e+00 
1.154962118559e+01 0.000000000000e+00 
1.157581938189e+01 0.000000000000e+00 
1.184584561512e+01 0.000000000000e+00 
1.187196480158e+01 0.000000000000e+00 
1.189816299788e+01 0.000000000000e+00 
1.216496579447e+01 0.000000000000e+00 
1.219108498092e+01 0.000000000000e+00 
1.221728317723e+01 0.000000000000e+00 
1.248089477258e+01 0.000000000000e+00 
1.250701395904e+01 0.000000000000e+00 
1.253321215534e+01 0.000000000000e+00 
1.279366445993e+01 0.000000000000e+00 
1.281978364639e+01 0.000000000000e+00 
1.284598184269e+01 0.000000000000e+00 
1.310330645112e+01 0.000000000000e+00 
1.312942563758e+01 0.000000000000e+00 
1.315562383388e+01 0.000000000000e+00 
1.340985202334e+01 0.000000000000e+00 
1.343597120980e+01 0.000000000000e+00 
1.346216940610e+01 0.000000000000e+00 
1.371333213754e+01 0.000000000000e+00 
1.373945132400e+01 0.000000000000e+00 
1.376564952030e+01 0.000000000000e+00 
1.401377744991e+01 0.000000000000e+00 
1.403989663636e+01 0.000000000000e+00 
1.406609483267e+01 0.000000000000e+00 
1.431121831012e+01 0.000000000000e+00 
1.433733749658e+01 0.000000000000e+00 
1.436353569288e+01 0.000000000000e+00 
1.460568476230e+01 0.000000000000e+00 
1.463180394876e+01 0.000000000000e+00 
1.465800214506e+01 0.000000000000e+00 
1.489720655108e+01 0.000000000000e+00 
1.492332573754e+01 0.000000000000e+00 
1.494952393384e+01 0.000000000000e+00 
1.518581312234e+01 0.000000000000e+00 
1.521193230880e+01 0.000000000000e+00 
1.523813050510e+01 0.000000000000e+00 
1.547153362658e+01 0.000000000000e+00 
1.549765281304e+01 0.000000000000e+00 
1.552385100934e+01 0.000000000000e+00 
1.575439692481e+01 0.000000000000e+00 
1.578051611127e+01 0.000000000000e+00 
1.580671430757e+01 0.000000000000e+00 
1.603443158909e+01 0.000000000000e+00 
1.606055077554e+01 0.000000000000e+00 
1.608674897185e+01 0.000000000000e+00 
1.631166590572e+01 0.000000000000e+00 
1.633778509218e+01 0.000000000000e+00 
1.636398328848e+01 0.000000000000e+00 
1.658612788093e+01 0.000000000000e+00 
1.661224706739e+01 0.000000000000e+00 
1.663844526369e+01 0.000000000000e+00 
1.685784523866e+01 0.000000000000e+00 
1.688396442512e+01 0.000000000000e+00 
1.691016262142e+01 0.000000000000e+00 
1.712684542358e+01 0.000000000000e+00 
1.715296461004e+01 0.000000000000e+00 
1.717916280634e+01 0.000000000000e+00 
1.739315560661e+01 0.000000000000e+00 
1.741927479307e+01 0.000000000000e+00 
1.744547298937e+01 0.000000000000e+00 
1.765680268522e+01 0.000000000000e+00 
1.768292187168e+01 0.000000000000e+00 
1.770912006798e+01 0.000000000000e+00 
1.791781329147e+01 0.000000000000e+00 
1.794393247793e+01 0.000000000000e+00 
1.797013067423e+01 0.000000000000e+00 
1.817621379205e+01 0.000000000000e+00 
1.820233297851e+01 0.000000000000e+00 
1.822853117481e+01 0.000000000000e+00 
1.843203028849e+01 0.000000000000e+00 
1.845814947494e+01 0.000000000000e+00 
1.848434767125e+01 0.000000000000e+00 
1.868528861968e+01 0.000000000000e+00 
1.871140780614e+01 0.000000000000e+00 
1.873760600244e+01 0.000000000000e+00 
1.893601436727e+01 0.000000000000e+00 
1.896213355373e+01 0.000000000000e+00 
1.898833175003e+01 0.000000000000e+00 
1.918423285803e+01 0.000000000000e+00 
1.921035204449e+01 0.000000000000e+00 
1.923655024079e+01 0.000000000000e+00 
1.942996916387e+01 0.000000000000e+00 
1.945608835033e+01 0.000000000000e+00 
1.948228654663e+01 0.000000000000e+00 
1.967324810681e+01 0.000000000000e+00 
1.969936729326e+01 0.000000000000e+00 
1.972556548957e+01 0.000000000000e+00 
1.991409426141e+01 0.000000000000e+00 
1.994021344787e+01 0.000000000000e+00 
1.996641164417e+01 0.000000000000e+00 
2.015253195450e+01 0.000000000000e+00 
2.017865114096e+01 0.000000000000e+00 
2.020484933726e+01 0.000000000000e+00 
2.038858527011e+01 0.000000000000e+00 
2.041470445657e+01 0.000000000000e+00 
2.044090265287e+01 0.000000000000e+00 
2.062227805166e+01 0.000000000000e+00 
2.064839723812e+01 0.000000000000e+00 
2.067459543442e+01 0.000000000000e+00 
2.085363390423e+01 0.000000000000e+00 
2.087975309069e+01 0.000000000000e+00 
2.090595128699e+01 0.000000000000e+00 
2.108267619925e+01 0.000000000000e+00 
2.110879538571e+01 0.000000000000e+00 
2.113499358201e+01 0.000000000000e+00 
2.130942807141e+01 0.000000000000e+00 
2.133554725787e+01 0.000000000000e+00 
2.136174545417e+01 0.000000000000e+00 
2.153391242592e+01 0.000000000000e+00 
2.156003161238e+01 0.000000000000e+00 
2.158622980868e+01 0.000000000000e+00 
2.175615193792e+01 0.000000000000e+00 
2.178227112438e+01 0.000000000000e+00 
2.180846932068e+01 0.000000000000e+00 
2.197616905444e+01 0.000000000000e+00 
2.200228824090e+01 0.000000000000e+00 
2.202848643720e+01 0.000000000000e+00 
2.219398599895e+01 0.000000000000e+00 
2.222010518541e+01 0.000000000000e+00 
2.224630338171e+01 0.000000000000e+00 
2.240962477320e+01 0.000000000000e+00 
2.243574395966e+01 0.000000000000e+00 
2.246194215596e+01 0.000000000000e+00 
2.262310715905e+01 0.000000000000e+00 
2.264922634551e+01 0.000000000000e+00 
2.267542454181e+01 0.000000000000e+00 
2.283445472028e+01 0.000000000000e+00 
2.286057390674e+01 0.000000000000e+00 
2.288677210304e+01 0.000000000000e+00 
2.304368880688e+01 0.000000000000e+00 
2.306980799334e+01 0.000000000000e+00 
2.309600618964e+01 0.000000000000e+00 
2.325083055416e+01 0.000000000000e+00 
2.327694974062e+01 0.000000000000e+00 
2.330314793692e+01 0.000000000000e+00 
2.345590088440e+01 0.000000000000e+00 
2.348202007086e+01 0.000000000000e+00 
2.350821826716e+01 0.000000000000e+00 
2.365892051109e+01 0.000000000000e+00 
2.368503969755e+01 0.000000000000e+00 
2.371123789385e+01 0.000000000000e+00 
2.385990994048e+01 0.000000000000e+00 
2.388602912694e+01 0.000000000000e+00 
2.391222732324e+01 0.000000000000e+00 
2.405888947575e+01 0.000000000000e+00 
2.408500866221e+01 0.000000000000e+00 
2.411120685851e+01 0.000000000000e+00 
2.425587921578e+01 0.000000000000e+00 
2.428199840224e+01 0.000000000000e+00 
2.430819659854e+01 0.000000000000e+00 
2.445089905930e+01 0.000000000000e+00 
2.447701824576e+01 0.000000000000e+00 
2.450321644206e+01 0.000000000000e+00 
2.464396870628e+01 0.000000000000e+00 
2.467008789274e+01 0.000000000000e+00 
2.469628608904e+01 0.000000000000e+00 
2.483510765670e+01 0.000000000000e+00 
2.486122684316e+01 0.000000000000e+00 
2.488742503946e+01 0.000000000000e+00 
2.502433521689e+01 0.000000000000e+00 
2.505045440335e+01 0.000000000000e+00 
2.507665259965e+01 0.000000000000e+00 
2.521167050114e+01 0.000000000000e+00 
2.523778968760e+01 0.000000000000e+00 
2.526398788390e+01 0.000000000000e+00 
2.539713243273e+01 0.000000000000e+00 
2.542325161919e+01 0.000000000000e+00 
2.544944981549e+01 0.000000000000e+00 
2.558073974520e+01 0.000000000000e+00 
2.560685893166e+01 0.000000000000e+00 
2.563305712796e+01 0.000000000000e+00 
2.576251098348e+01 0.000000000000e+00 
2.578863016993e+01 0.000000000000e+00 
2.581482836624e+01 0.000000000000e+00 
2.594246450766e+01 0.000000000000e+00 
2.596858369412e+01 0.000000000000e+00 
2.599478189042e+01 0.000000000000e+00 
2.612061849672e+01 0.000000000000e+00 
2.614673768318e+01 0.000000000000e+00 
2.617293587948e+01 0.000000000000e+00 
2.629699094688e+01 0.000000000000e+00 
2.632311013334e+01 0.000000000000e+00 
2.634930832964e+01 0.000000000000e+00 
2.647159967269e+01 0.000000000000e+00 
2.649771885915e+01 0.000000000000e+00 
2.652391705545e+01 0.000000000000e+00 
2.664446231061e+01 0.000000000000e+00 
2.667058149707e+01 0.000000000000e+00 
2.669677969337e+01 0.000000000000e+00 
2.681559632257e+01 0.000000000000e+00 
2.684171550902e+01 0.000000000000e+00 
2.686791370533e+01 0.000000000000e+00 
2.698501899423e+01 0.000000000000e+00 
2.701113818069e+01 0.000000000000e+00 
2.703733637699e+01 0.000000000000e+00 
2.715274743856e+01 0.000000000000e+00 
2.717886662502e+01 0.000000000000e+00 
2.720506482132e+01 0.000000000000e+00 
2.731879859918e+01 0.000000000000e+00 
2.734491778564e+01 0.000000000000e+00 
2.737111598194e+01 0.000000000000e+00 
2.748318924861e+01 0.000000000000e+00 
2.750930843506e+01 0.000000000000e+00 
2.753550663137e+01 0.000000000000e+00 
2.764593599163e+01 0.000000000000e+00 
2.767205517809e+01 0.000000000000e+00 
2.769825337439e+01 0.000000000000e+00 
2.780705526606e+01 0.000000000000e+00 
2.783317445252e+01 0.000000000000e+00 
2.785937264882e+01 0.000000000000e+00 
2.796656334868e+01 0.000000000000e+00 
2.799268253514e+01 0.000000000000e+00 
2.801888073144e+01 0.000000000000e+00 
2.812447635057e+01 0.000000000000e+00 
2.815059553703e+01 0.000000000000e+00 
2.817679373333e+01 0.000000000000e+00 
2.828081022055e+01 0.000000000000e+00 
2.830692940701e+01 0.000000000000e+00 
2.833312760331e+01 0.000000000000e+00 
2.843558075346e+01 0.000000000000e+00 
2.846169993991e+01 0.000000000000e+00 
2.848789813622e+01 0.000000000000e+00 
2.858880358293e+01 0.000000000000e+00 
2.861492276939e+01 0.000000000000e+00 
2.864112096569e+01 0.000000000000e+00 
2.874049418457e+01 0.000000000000e+00 
2.876661337103e+01 0.000000000000e+00 
2.879281156733e+01 0.000000000000e+00 
2.889066787910e+01 0.000000000000e+00 
2.891678706556e+01 0.000000000000e+00 
2.894298526186e+01 0.000000000000e+00 
2.903933983541e+01 0.000000000000e+00 
2.906545902187e+01 0.000000000000e+00 
2.909165721817e+01 0.000000000000e+00 
2.918652507103e+01 0.000000000000e+00 
2.921264425749e+01 0.000000000000e+00 
2.923884245379e+01 0.000000000000e+00 
2.933223845515e+01 0.000000000000e+00 
2.935835764161e+01 0.000000000000e+00 
2.938455583791e+01 0.000000000000e+00 
2.947649470632e+01 0.000000000000e+00 
2.950261389278e+01 0.000000000000e+00 
2.952881208908e+01 0.000000000000e+00 
2.961930839294e+01 0.000000000000e+00 
2.964542757940e+01 0.000000000000e+00 
2.967162577570e+01 0.000000000000e+00 
2.976069394397e+01 0.000000000000e+00 
2.978681313042e+01 0.000000000000e+00 
2.981301132673e+01 0.000000000000e+00 
2.990066564131e+01 0.000000000000e+00 
2.992678482777e+01 0.000000000000e+00 
2.995298302407e+01 0.000000000000e+00 
3.003923762023e+01 0.000000000000e+00 
3.006535680669e+01 0.000000000000e+00 
3.009155500299e+01 0.000000000000e+00 
3.017642387996e+01 0.000000000000e+00 
3.020254306642e+01 0.000000000000e+00 
3.022874126272e+01 0.000000000000e+00 
3.031223827866e+01 0.000000000000e+00 
3.033835746512e+01 0.000000000000e+00 
3.036455566142e+01 0.000000000000e+00 
3.044669453104e+01 0.000000000000e+00 
3.047281371750e+01 0.000000000000e+00 
3.049901191380e+01 0.000000000000e+00 
3.057980621900e+01 0.000000000000e+00 
3.060592540546e+01 0.000000000000e+00 
3.063212360176e+01 0.000000000000e+00 
3.071158679167e+01 0.000000000000e+00 
3.073770597812e+01 0.000000000000e+00 
3.076390417443e+01 0.000000000000e+00 
3.084204956026e+01 0.000000000000e+00 
3.086816874672e+01 0.000000000000e+00 
3.089436694302e+01 0.000000000000e+00 
3.097120770086e+01 0.000000000000e+00 
3.099732688732e+01 0.000000000000e+00 
3.102352508362e+01 0.000000000000e+00 
3.109907425965e+01 0.000000000000e+00 
3.112519344611e+01 0.000000000000e+00 
3.115139164241e+01 0.000000000000e+00 
3.122566215292e+01 0.000000000000e+00 
3.125178133937e+01 0.000000000000e+00 
3.127797953568e+01 0.000000000000e+00 
3.135098416705e+01 0.000000000000e+00 
3.137710335351e+01 0.000000000000e+00 
3.140330154981e+01 0.000000000000e+00 
3.147505296114e+01 0.000000000000e+00 
3.150117214760e+01 0.000000000000e+00 
3.152737034390e+01 0.000000000000e+00 
3.159788106689e+01 0.000000000000e+00 
3.162400025334e+01 0.000000000000e+00 
3.165019844965e+01 0.000000000000e+00 
3.171948089115e+01 0.000000000000e+00 
3.174560007761e+01 0.000000000000e+00 
3.177179827391e+01 0.000000000000e+00 
3.183986471845e+01 0.000000000000e+00 
3.186598390491e+01 0.000000000000e+00 
3.189218210121e+01 0.000000000000e+00 
3.195904470818e+01 0.000000000000e+00 
3.198516389464e+01 0.000000000000e+00 
3.201136209094e+01 0.000000000000e+00 
3.207703289713e+01 0.000000000000e+00 
3.210315208359e+01 0.000000000000e+00 
3.212935027989e+01 0.000000000000e+00 
3.219384120449e+01 0.000000000000e+00 
3.221996039095e+01 0.000000000000e+00 
3.224615858725e+01 0.000000000000e+00 
3.230948142902e+01 0.000000000000e+00 
3.233560061548e+01 0.000000000000e+00 
3.236179881178e+01 0.000000000000e+00 
3.242396525144e+01 0.000000000000e+00 
3.245008443790e+01 0.000000000000e+00 
3.247628263420e+01 0.000000000000e+00 
3.253730423417e+01 0.000000000000e+00 
3.256342342063e+01 0.000000000000e+00 
3.258962161693e+01 0.000000000000e+00 
3.264950982633e+01 0.000000000000e+00 
3.267562901279e+01 0.000000000000e+00 
3.270182720909e+01 0.000000000000e+00 
3.276059336331e+01 0.000000000000e+00 
3.278671254977e+01 0.000000000000e+00 
3.281291074607e+01 0.000000000000e+00 
3.287056606395e+01 0.000000000000e+00 
3.289668525041e+01 0.000000000000e+00 
3.292288344671e+01 0.000000000000e+00 
3.297943903799e+01 0.000000000000e+00 
3.300555822445e+01 0.000000000000e+00 
3.303175642075e+01 0.000000000000e+00 
3.308722328303e+01 0.000000000000e+00 
3.311334246949e+01 0.000000000000e+00 
3.313954066579e+01 0.000000000000e+00 
3.319392968423e+01 0.000000000000e+00 
3.322004887069e+01 0.000000000000e+00 
3.324624706699e+01 0.000000000000e+00 
3.329956902169e+01 0.000000000000e+00 
3.332568820815e+01 0.000000000000e+00 
3.335188640445e+01 0.000000000000e+00 
3.340415196737e+01 0.000000000000e+00 
3.343027115383e+01 0.000000000000e+00 
3.345646935013e+01 0.000000000000e+00 
3.350768908203e+01 0.000000000000e+00 
3.353380826849e+01 0.000000000000e+00 
3.356000646479e+01 0.000000000000e+00 
3.361019082527e+01 0.000000000000e+00 
3.363631001173e+01 0.000000000000e+00 
3.366250820803e+01 0.000000000000e+00 
3.371166755230e+01 0.000000000000e+00 
3.373778673876e+01 0.000000000000e+00 
3.376398493506e+01 0.000000000000e+00 
3.381212951088e+01 0.000000000000e+00 
3.383824869734e+01 0.000000000000e+00 
3.386444689364e+01 0.000000000000e+00 
3.391158685122e+01 0.000000000000e+00 
3.393770603768e+01 0.000000000000e+00 
3.396390423398e+01 0.000000000000e+00 
3.401004962012e+01 0.000000000000e+00 
3.403616880658e+01 0.000000000000e+00 
3.406236700288e+01 0.000000000000e+00 
3.410752776046e+01 0.000000000000e+00 
3.413364694692e+01 0.000000000000e+00 
3.415984514322e+01 0.000000000000e+00 
3.420403111845e+01 0.000000000000e+00 
3.423015030491e+01 0.000000000000e+00 
3.425634850121e+01 0.000000000000e+00 
3.429956944292e+01 0.000000000000e+00 
3.432568862938e+01 0.000000000000e+00 
3.435188682568e+01 0.000000000000e+00 
3.439415238474e+01 0.000000000000e+00 
3.442027157120e+01 0.000000000000e+00 
3.444646976750e+01 0.000000000000e+00 
3.448778949610e+01 0.000000000000e+00 
3.451390868256e+01 0.000000000000e+00 
3.454010687886e+01 0.000000000000e+00 
3.458049023512e+01 0.000000000000e+00 
3.460660942158e+01 0.000000000000e+00 
3.463280761788e+01 0.000000000000e+00 
3.467226396769e+01 0.000000000000e+00 
3.469838315415e+01 0.000000000000e+00 
3.472458135045e+01 0.000000000000e+00 
3.476311996416e+01 0.000000000000e+00 
3.478923915062e+01 0.000000000000e+00 
3.481543734692e+01 0.000000000000e+00 
3.485306740120e+01 0.000000000000e+00 
3.487918658766e+01 0.000000000000e+00 
3.490538478396e+01 0.000000000000e+00 
3.494211536366e+01 0.000000000000e+00 
3.496823455012e+01 0.000000000000e+00 
3.499443274642e+01 0.000000000000e+00 
3.503027284643e+01 0.000000000000e+00 
3.505639203289e+01 0.000000000000e+00 
3.508259022919e+01 0.000000000000e+00 
3.511754875358e+01 0.000000000000e+00 
3.514366794004e+01 0.000000000000e+00 
3.516986613634e+01 0.000000000000e+00 
3.520395190026e+01 0.000000000000e+00 
3.523007108671e+01 0.000000000000e+00 
3.525626928302e+01 0.000000000000e+00 
3.528949101696e+01 0.000000000000e+00 
3.531561020342e+01 0.000000000000e+00 
3.534180839972e+01 0.000000000000e+00 
3.537417474349e+01 0.000000000000e+00 
3.540029392995e+01 0.000000000000e+00 
3.542649212625e+01 0.000000000000e+00 
3.545801163075e+01 0.000000000000e+00 
3.548413081720e+01 0.000000000000e+00 
3.551032901351e+01 0.000000000000e+00 
3.554101014768e+01 0.000000000000e+00 
3.556712933413e+01 0.000000000000e+00 
3.559332753044e+01 0.000000000000e+00 
3.562317868031e+01 0.000000000000e+00 
3.564929786677e+01 0.000000000000e+00 
3.567549606307e+01 0.000000000000e+00 
3.570452552825e+01 0.000000000000e+00 
3.573064471471e+01 0.000000000000e+00 
3.575684291101e+01 0.000000000000e+00 
3.578505890897e+01 0.000000000000e+00 
3.581117809543e+01 0.000000000000e+00 
3.583737629173e+01 0.000000000000e+00 
3.586478695682e+01 0.000000000000e+00 
3.589090614327e+01 0.000000000000e+00 
3.591710433958e+01 0.000000000000e+00 
3.594371772212e+01 0.000000000000e+00 
3.596983690858e+01 0.000000000000e+00 
3.599603510488e+01 0.000000000000e+00 
3.602185917803e+01 0.000000000000e+00 
3.604797836449e+01 0.000000000000e+00 
3.607417656079e+01 0.000000000000e+00 
3.609921921945e+01 0.000000000000e+00 
3.612533840591e+01 0.000000000000e+00 
3.615153660221e+01 0.000000000000e+00 
3.617580566204e+01 0.000000000000e+00 
3.620192484850e+01 0.000000000000e+00 
3.622812304480e+01 0.000000000000e+00 
3.625162624116e+01 0.000000000000e+00 
3.627774542762e+01 0.000000000000e+00 
3.630394362392e+01 0.000000000000e+00 
3.632668861348e+01 0.000000000000e+00 
3.635280779994e+01 0.000000000000e+00 
3.637900599624e+01 0.000000000000e+00 
3.640100036114e+01 0.000000000000e+00 
3.642711954760e+01 0.000000000000e+00 
3.645331774390e+01 0.000000000000e+00 
3.647456899324e+01 0.000000000000e+00 
3.650068817970e+01 0.000000000000e+00 
3.652688637600e+01 0.000000000000e+00 
 TITLE = "Profiles along polylines"
 VARIABLES = "DIST" "HEAD" 
 ZONE T="TIME=1.797693134862e+308"
1.474568993243e+00 3.441956680020e+01 
1.500688179702e+00 3.441903396791e+01 
1.526886376003e+00 3.441849012693e+01 
1.897401937509e+00 3.441943541366e+01 
1.923521123967e+00 3.441890248681e+01 
1.949719320268e+00 3.441835855099e+01 
2.316006554648e+00 3.441930684843e+01 
2.342125741106e+00 3.441877382801e+01 
2.368323937407e+00 3.441822979832e+01 
2.730425124517e+00 3.441918104725e+01 
2.756544310976e+00 3.441864793424e+01 
2.782742507277e+00 3.441810381166e+01 
3.140699508537e+00 3.441905795287e+01 
3.166818694995e+00 3.441852474823e+01 
3.193016891296e+00 3.441798053373e+01 
3.546871150189e+00 3.441893750917e+01 
3.572990336648e+00 3.441840421386e+01 
3.599188532949e+00 3.441785990839e+01 
3.948981075611e+00 3.441881966126e+01 
3.975100262070e+00 3.441828627622e+01 
4.001298458371e+00 3.441774188074e+01 
4.347069901860e+00 3.441870435543e+01 
4.373189088318e+00 3.441817088161e+01 
4.399387284620e+00 3.441762639703e+01 
4.741177839873e+00 3.441859153909e+01 
4.767297026331e+00 3.441805797740e+01 
4.793495222633e+00 3.441751340467e+01 
5.131344697354e+00 3.441848116073e+01 
5.157463883812e+00 3.441794751210e+01 
5.183662080114e+00 3.441740285212e+01 
5.517609884214e+00 3.441837316991e+01 
5.543729070672e+00 3.441783943523e+01 
5.569927266973e+00 3.441729468892e+01 
5.900012420505e+00 3.441826751719e+01 
5.926131606964e+00 3.441773369737e+01 
5.952329803265e+00 3.441718886561e+01 
6.278590931144e+00 3.441816415417e+01 
6.304710117602e+00 3.441763025008e+01 
6.330908313904e+00 3.441708533377e+01 
6.653383656488e+00 3.441806303341e+01 
6.679502842947e+00 3.441752904593e+01 
6.705701039248e+00 3.441698404593e+01 
7.024428454633e+00 3.441796410845e+01 
7.050547641092e+00 3.441743003844e+01 
7.076745837393e+00 3.441688495562e+01 
7.391762804005e+00 3.441786733375e+01 
7.417881990464e+00 3.441733318208e+01 
7.444080186765e+00 3.441678801729e+01 
7.755423810767e+00 3.441777266472e+01 
7.781542997225e+00 3.441723843222e+01 
7.807741193526e+00 3.441669318631e+01 
8.115448205943e+00 3.441768005766e+01 
8.141567392401e+00 3.441714574517e+01 
8.167765588703e+00 3.441660041898e+01 
8.471872358055e+00 3.441758946977e+01 
8.497991544513e+00 3.441705507811e+01 
8.524189740815e+00 3.441650967246e+01 
8.824732269915e+00 3.441750085911e+01 
8.850851456373e+00 3.441696638910e+01 
8.877049652674e+00 3.441642090480e+01 
9.174063583386e+00 3.441741418458e+01 
9.200182769845e+00 3.441687963703e+01 
9.226380966146e+00 3.441633407490e+01 
9.519901583878e+00 3.441732940595e+01 
9.546020770336e+00 3.441679478166e+01 
9.572218966637e+00 3.441624914249e+01 
9.862281202312e+00 3.441724648378e+01 
9.888400388771e+00 3.441671178353e+01 
9.914598585072e+00 3.441616606812e+01 
1.020123702476e+01 3.441716537944e+01 
1.022735621122e+01 3.441663060401e+01 
1.025355440752e+01 3.441608481314e+01 
1.053680328889e+01 3.441708605509e+01 
1.056292247535e+01 3.441655120525e+01 
1.058912067165e+01 3.441600533968e+01 
1.086901389100e+01 3.441700847364e+01 
1.089513307746e+01 3.441647355016e+01 
1.092133127376e+01 3.441592761066e+01 
1.119790238748e+01 3.441693259879e+01 
1.122402157394e+01 3.441639760242e+01 
1.125021977024e+01 3.441585158974e+01 
1.152350199913e+01 3.441685839494e+01 
1.154962118559e+01 3.441632332642e+01 
1.157581938189e+01 3.441577724132e+01 
1.184584561512e+01 3.441678582724e+01 
1.187196480158e+01 3.441625068732e+01 
1.189816299788e+01 3.441570453052e+01 
1.216496579447e+01 3.441671486155e+01 
1.219108498092e+01 3.441617965094e+01 
1.221728317723e+01 3.441563342319e+01 
1.248089477258e+01 3.441664546441e+01 
1.250701395904e+01 3.441611018384e+01 
1.253321215534e+01 3.441556388584e+01 
1.279366445993e+01 3.441657760304e+01 
1.281978364639e+01 3.441604225323e+01 
1.284598184269e+01 3.441549588570e+01 
1.310330645112e+01 3.441651124536e+01 
1.312942563758e+01 3.441597582699e+01 
1.315562383388e+01 3.441542939065e+01 
1.340985202334e+01 3.441644635990e+01 
1.343597120980e+01 3.441591087368e+01 
1.346216940610e+01 3.441536436922e+01 
1.371333213754e+01 3.441638291585e+01 
1.373945132400e+01 3.441584736248e+01 
1.376564952030e+01 3.441530079059e+01 
1.401377744991e+01 3.441632088305e+01 
1.403989663636e+01 3.441578526320e+01 
1.406609483267e+01 3.441523862456e+01 
1.431121831012e+01 3.441626023192e+01 
1.433733749658e+01 3.441572454626e+01 
1.436353569288e+01 3.441517784154e+01 
1.460568476230e+01 3.441620093350e+01 
1.463180394876e+01 3.441566518270e+01 
1.465800214506e+01 3.441511841258e+01 
1.489720655108e+01 3.441614295942e+01 
1.492332573754e+01 3.441560714414e+01 
1.494952393384e+01 3.441506030927e+01 
1.518581312234e+01 3.441608628189e+01 
1.521193230880e+01 3.441555040278e+01 
1.523813050510e+01 3.441500350382e+01 
1.547153362658e+01 3.441603087369e+01 
1.549765281304e+01 3.441549493139e+01 
1.552385100934e+01 3.441494796898e+01 
1.575439692481e+01 3.441597670814e+01 
1.578051611127e+01 3.441544070329e+01 
1.580671430757e+01 3.441489367808e+01 
1.603443158909e+01 3.441592375912e+01 
1.606055077554e+01 3.441538769236e+01 
1.608674897185e+01 3.441484060497e+01 
1.631166590572e+01 3.441587200105e+01 
1.633778509218e+01 3.441533587298e+01 
1.636398328848e+01 3.441478872405e+01 
1.658612788093e+01 3.441582140884e+01 
1.661224706739e+01 3.441528522010e+01 
1.663844526369e+01 3.441473801023e+01 
1.685784523866e+01 3.441577195796e+01 
1.688396442512e+01 3.441523570915e+01 
1.691016262142e+01 3.441468843896e+01 
1.712684542358e+01 3.441572362434e+01 
1.715296461004e+01 3.441518731606e+01 
1.717916280634e+01 3.441463998616e+01 
1.739315560661e+01 3.441567638443e+01 
1.741927479307e+01 3.441514001727e+01 
1.744547298937e+01 3.441459262826e+01 
1.765680268522e+01 3.441563021514e+01 
1.768292187168e+01 3.441509378971e+01 
1.770912006798e+01 3.441454634217e+01 
1.791781329147e+01 3.441558509387e+01 
1.794393247793e+01 3.441504861074e+01 
1.797013067423e+01 3.441450110527e+01 
1.817621379205e+01 3.441554099847e+01 
1.820233297851e+01 3.441500445823e+01 
1.822853117481e+01 3.441445689540e+01 
1.843203028849e+01 3.441549790726e+01 
1.845814947494e+01 3.441496131047e+01 
1.848434767125e+01 3.441441369086e+01 
1.868528861968e+01 3.441545579899e+01 
1.871140780614e+01 3.441491914621e+01 
1.873760600244e+01 3.441437147040e+01 
1.893601436727e+01 3.441541465284e+01 
1.896213355373e+01 3.441487794465e+01 
1.898833175003e+01 3.441433021318e+01 
1.918423285803e+01 3.441537444844e+01 
1.921035204449e+01 3.441483768537e+01 
1.923655024079e+01 3.441428989881e+01 
1.942996916387e+01 3.441533516581e+01 
1.945608835033e+01 3.441479834842e+01 
1.948228654663e+01 3.441425050731e+01 
1.967324810681e+01 3.441529678540e+01 
1.969936729326e+01 3.441475991424e+01 
1.972556548957e+01 3.441421201912e+01 
1.991409426141e+01 3.441525928805e+01 
1.994021344787e+01 3.441472236365e+01 
1.996641164417e+01 3.441417441507e+01 
2.015253195450e+01 3.441522265501e+01 
2.017865114096e+01 3.441468567789e+01 
2.020484933726e+01 3.441413767638e+01 
2.038858527011e+01 3.441518686788e+01 
2.041470445657e+01 3.441464983858e+01 
2.044090265287e+01 3.441410178467e+01 
2.062227805166e+01 3.441515190868e+01 
2.064839723812e+01 3.441461482771e+01 
2.067459543442e+01 3.441406672192e+01 
2.085363390423e+01 3.441511775977e+01 
2.087975309069e+01 3.441458062764e+01 
2.090595128699e+01 3.441403247049e+01 
2.108267619925e+01 3.441508440388e+01 
2.110879538571e+01 3.441454722111e+01 
2.113499358201e+01 3.441399901310e+01 
2.130942807141e+01 3.441505182411e+01 
2.133554725787e+01 3.441451459119e+01 
2.136174545417e+01 3.441396633284e+01 
2.153391242592e+01 3.441502000388e+01 
2.156003161238e+01 3.441448272132e+01 
2.158622980868e+01 3.441393441312e+01 
2.175615193792e+01 3.441498892697e+01 
2.178227112438e+01 3.441445159526e+01 
2.180846932068e+01 3.441390323770e+01 
2.197616905444e+01 3.441495857749e+01 
2.200228824090e+01 3.441442119712e+01 
2.202848643720e+01 3.441387279070e+01 
2.219398599895e+01 3.441492893987e+01 
2.222010518541e+01 3.441439151132e+01 
2.224630338171e+01 3.441384305653e+01 
2.240962477320e+01 3.441489999888e+01 
2.243574395966e+01 3.441436252263e+01 
2.246194215596e+01 3.441381401994e+01 
2.262310715905e+01 3.441487173958e+01 
2.264922634551e+01 3.441433421610e+01 
2.267542454181e+01 3.441378566600e+01 
2.283445472028e+01 3.441484414736e+01 
2.286057390674e+01 3.441430657712e+01 
2.288677210304e+01 3.441375798006e+01 
2.304368880688e+01 3.441481720788e+01 
2.306980799334e+01 3.441427959135e+01 
2.309600618964e+01 3.441373094781e+01 
2.325083055416e+01 3.441479090714e+01 
2.327694974062e+01 3.441425324477e+01 
2.330314793692e+01 3.441370455520e+01 
2.345590088440e+01 3.441476523139e+01 
2.348202007086e+01 3.441422752363e+01 
2.350821826716e+01 3.441367878850e+01 
2.365892051109e+01 3.441474016717e+01 
2.368503969755e+01 3.441420241448e+01 
2.371123789385e+01 3.441365363424e+01 
2.385990994048e+01 3.441471570133e+01 
2.388602912694e+01 3.441417790415e+01 
2.391222732324e+01 3.441362907924e+01 
2.405888947575e+01 3.441469182095e+01 
2.408500866221e+01 3.441415397972e+01 
2.411120685851e+01 3.441360511058e+01 
2.425587921578e+01 3.441466851340e+01 
2.428199840224e+01 3.441413062856e+01 
2.430819659854e+01 3.441358171563e+01 
2.445089905930e+01 3.441464576631e+01 
2.447701824576e+01 3.441410783828e+01 