 TITLE = "Profiles along polylines"
 VARIABLES = "DIST" "HEAD" "VELOCITY_X1" "VELOCITY_Y1" "VELOCITY_Z1" 
 ZONE T="TIME=0.000000000000e+00"
0.000000000000e+00 3.000000000000e+01 0.000000000000e+00 0.000000000000e+00 0.000000000000e+00 
1.000000000000e+00 3.000000000000e+01 0.000000000000e+00 0.000000000000e+00 0.000000000000e+00 
2.000000000000e+00 3.000000000000e+01 0.000000000000e+00 0.000000000000e+00 0.000000000000e+00 
3.000000000000e+00 3.000000000000e+01 0.000000000000e+00 0.000000000000e+00 0.000000000000e+00 
4.000000000000e+00 3.000000000000e+01 0.000000000000e+00 0.000000000000e+00 0.000000000000e+00 
5.000000000000e+00 3.000000000000e+01 0.000000000000e+00 0.000000000000e+00 0.000000000000e+00 
6.000000000000e+00 3.000000000000e+01 0.000000000000e+00 0.000000000000e+00 0.000000000000e+00 
7.000000000000e+00 3.000000000000e+01 0.000000000000e+00 0.000000000000e+00 0.000000000000e+00 
8.000000000000e+00 3.000000000000e+01 0.000000000000e+00 0.000000000000e+00 0.000000000000e+00 
9.000000000000e+00 3.000000000000e+01 0.000000000000e+00 0.000000000000e+00 0.000000000000e+00 
1.000000000000e+01 3.000000000000e+01 0.000000000000e+00 0.000000000000e+00 0.000000000000e+00 
1.100000000000e+01 3.000000000000e+01 0.000000000000e+00 0.000000000000e+00 0.000000000000e+00 
1.200000000000e+01 3.000000000000e+01 0.000000000000e+00 0.000000000000e+00 0.000000000000e+00 
1.300000000000e+01 3.000000000000e+01 0.000000000000e+00 0.000000000000e+00 0.000000000000e+00 
1.400000000000e+01 3.000000000000e+01 0.000000000000e+00 0.000000000000e+00 0.000000000000e+00 
1.500000000000e+01 3.000000000000e+01 0.000000000000e+00 0.000000000000e+00 0.000000000000e+00 
1.600000000000e+01 3.000000000000e+01 0.000000000000e+00 0.000000000000e+00 0.000000000000e+00 
1.700000000000e+01 3.000000000000e+01 0.000000000000e+00 0.000000000000e+00 0.000000000000e+00 
1.800000000000e+01 3.000000000000e+01 0.000000000000e+00 0.000000000000e+00 0.000000000000e+00 
1.900000000000e+01 3.000000000000e+01 0.000000000000e+00 0.000000000000e+00 0.000000000000e+00 
2.000000000000e+01 3.000000000000e+01 0.000000000000e+00 0.000000000000e+00 0.000000000000e+00 
2.100000000000e+01 3.000000000000e+01 0.000000000000e+00 0.000000000000e+00 0.000000000000e+00 
2.200000000000e+01 3.000000000000e+01 0.000000000000e+00 0.000000000000e+00 0.000000000000e+00 
2.300000000000e+01 3.000000000000e+01 0.000000000000e+00 0.000000000000e+00 0.000000000000e+00 
2.400000000000e+01 3.000000000000e+01 0.000000000000e+00 0.000000000000e+00 0.000000000000e+00 
2.500000000000e+01 3.000000000000e+01 0.000000000000e+00 0.000000000000e+00 0.000000000000e+00 
2.600000000000e+01 3.000000000000e+01 0.000000000000e+00 0.000000000000e+00 0.000000000000e+00 
2.700000000000e+01 3.000000000000e+01 0.000000000000e+00 0.000000000000e+00 0.000000000000e+00 
2.800000000000e+01 3.000000000000e+01 0.000000000000e+00 0.000000000000e+00 0.000000000000e+00 
2.900000000000e+01 3.000000000000e+01 0.000000000000e+00 0.000000000000e+00 0.000000000000e+00 
3.000000000000e+01 3.000000000000e+01 0.000000000000e+00 0.000000000000e+00 0.000000000000e+00 
 TITLE = "Profiles along polylines"
 VARIABLES = "DIST" "HEAD" "VELOCITY_X1" "VELOCITY_Y1" "VELOCITY_Z1" 
 ZONE T="TIME=1.797693134862e+308"
0.000000000000e+00 3.054043757757e+01 6.192959139967e-12 -6.192881796375e-12 0.000000000000e+00 
1.000000000000e+00 3.054043813020e+01 2.206192417505e-11 -2.825445906380e-11 0.000000000000e+00 
2.000000000000e+00 3.054043886327e+01 1.984084155415e-11 -7.016957080126e-11 0.000000000000e+00 
3.000000000000e+00 3.054046717700e+01 1.687140096522e-12 -9.171105850808e-11 0.000000000000e+00 
4.000000000000e+00 3.054049908457e+01 1.353795915837e-10 -2.287641348299e-10 0.000000000000e+00 
5.000000000000e+00 3.054049983226e+01 1.386638080920e-10 -5.028751218559e-10 0.000000000000e+00 
6.000000000000e+00 3.054054290923e+01 8.210820356256e-12 -6.498355340050e-10 0.000000000000e+00 
7.000000000000e+00 3.054058729977e+01 7.169472530154e-12 -6.652210610224e-10 0.000000000000e+00 
8.000000000000e+00 3.054064774306e+01 2.200752994702e-10 -8.924445671497e-10 0.000000000000e+00 
9.000000000000e+00 3.054064915967e+01 2.231087273379e-10 -1.335739875019e-09 0.000000000000e+00 
1.000000000000e+01 3.054071927005e+01 1.865085732264e-11 -1.577638320546e-09 0.000000000000e+00 
1.100000000000e+01 3.054075453322e+01 1.293256648223e-11 -1.609231870123e-09 0.000000000000e+00 
1.200000000000e+01 3.054180653453e+01 2.505072664274e-11 -1.647220602014e-09 0.000000000000e+00 
1.300000000000e+01 3.054182529953e+01 3.024471357422e-10 -1.974699264223e-09 0.000000000000e+00 
1.400000000000e+01 3.054182756434e+01 2.788731063708e-10 -2.556183903681e-09 0.000000000000e+00 
1.500000000000e+01 3.054254030368e+01 1.473875188980e-12 -2.836715694635e-09 0.000000000000e+00 
1.600000000000e+01 3.054463166172e+01 1.311552153433e-11 -2.851305216995e-09 0.000000000000e+00 
1.700000000000e+01 3.054469378836e+01 1.932933951621e-11 -2.883756781384e-09 0.000000000000e+00 
1.800000000000e+01 3.054481549948e+01 1.246115441646e-11 -2.915560079945e-09 0.000000000000e+00 
1.900000000000e+01 3.054495329858e+01 9.461817998441e-11 -3.022637876437e-09 0.000000000000e+00 
2.000000000000e+01 3.054496300464e+01 8.895767108734e-11 -3.206259271852e-09 0.000000000000e+00 
2.100000000000e+01 3.054901620361e+01 1.619469883433e-11 -3.311463612764e-09 0.000000000000e+00 
2.200000000000e+01 3.054907378377e+01 5.622571615926e-11 -3.383888238458e-09 0.000000000000e+00 
2.300000000000e+01 3.054909739742e+01 4.030213799423e-11 -3.480444914785e-09 0.000000000000e+00 
2.400000000000e+01 3.056821522239e+01 7.225816253664e-12 -3.527996545496e-09 0.000000000000e+00 
2.500000000000e+01 3.056835139844e+01 8.078745795880e-12 -3.543304572805e-09 0.000000000000e+00 
2.600000000000e+01 3.056943591375e+01 3.757713166789e-10 -3.927137752496e-09 0.000000000000e+00 
2.700000000000e+01 3.056943908617e+01 5.324033062464e-10 -4.835446597732e-09 0.000000000000e+00 
2.800000000000e+01 3.056944850094e+01 1.622649446487e-10 -5.530361159532e-09 0.000000000000e+00 
2.900000000000e+01 3.056978278701e+01 2.157356451427e-11 -5.714290771492e-09 0.000000000000e+00 
3.000000000000e+01 3.056987676866e+01 3.373082179934e-11 -5.735864386295e-09 0.000000000000e+00 
