 TITLE = "Profiles along polylines"
 VARIABLES = "DIST" "HEAD" "VELOCITY_X1" "VELOCITY_Y1" "VELOCITY_Z1" 
 ZONE T="TIME=0.000000000000e+00"
0.000000000000e+00 3.000000000000e+01 0.000000000000e+00 0.000000000000e+00 0.000000000000e+00 
1.000000000000e+00 3.000000000000e+01 0.000000000000e+00 0.000000000000e+00 0.000000000000e+00 
2.000000000000e+00 3.000000000000e+01 0.000000000000e+00 0.000000000000e+00 0.000000000000e+00 
3.000000000000e+00 3.000000000000e+01 0.000000000000e+00 0.000000000000e+00 0.000000000000e+00 
4.000000000000e+00 3.000000000000e+01 0.000000000000e+00 0.000000000000e+00 0.000000000000e+00 
5.000000000000e+00 3.000000000000e+01 0.000000000000e+00 0.000000000000e+00 0.000000000000e+00 
6.000000000000e+00 3.000000000000e+01 0.000000000000e+00 0.000000000000e+00 0.000000000000e+00 
7.000000000000e+00 3.000000000000e+01 0.000000000000e+00 0.000000000000e+00 0.000000000000e+00 
8.000000000000e+00 3.000000000000e+01 0.000000000000e+00 0.000000000000e+00 0.000000000000e+00 
9.000000000000e+00 3.000000000000e+01 0.000000000000e+00 0.000000000000e+00 0.000000000000e+00 
1.000000000000e+01 3.000000000000e+01 0.000000000000e+00 0.000000000000e+00 0.000000000000e+00 
1.100000000000e+01 3.000000000000e+01 0.000000000000e+00 0.000000000000e+00 0.000000000000e+00 
1.200000000000e+01 3.000000000000e+01 0.000000000000e+00 0.000000000000e+00 0.000000000000e+00 
1.300000000000e+01 3.000000000000e+01 0.000000000000e+00 0.000000000000e+00 0.000000000000e+00 
1.400000000000e+01 3.000000000000e+01 0.000000000000e+00 0.000000000000e+00 0.000000000000e+00 
1.500000000000e+01 3.000000000000e+01 0.000000000000e+00 0.000000000000e+00 0.000000000000e+00 
1.600000000000e+01 3.000000000000e+01 0.000000000000e+00 0.000000000000e+00 0.000000000000e+00 
1.700000000000e+01 3.000000000000e+01 0.000000000000e+00 0.000000000000e+00 0.000000000000e+00 
1.800000000000e+01 3.000000000000e+01 0.000000000000e+00 0.000000000000e+00 0.000000000000e+00 
1.900000000000e+01 3.000000000000e+01 0.000000000000e+00 0.000000000000e+00 0.000000000000e+00 
2.000000000000e+01 3.000000000000e+01 0.000000000000e+00 0.000000000000e+00 0.000000000000e+00 
2.100000000000e+01 3.000000000000e+01 0.000000000000e+00 0.000000000000e+00 0.000000000000e+00 
2.200000000000e+01 3.000000000000e+01 0.000000000000e+00 0.000000000000e+00 0.000000000000e+00 
2.300000000000e+01 3.000000000000e+01 0.000000000000e+00 0.000000000000e+00 0.000000000000e+00 
2.400000000000e+01 3.000000000000e+01 0.000000000000e+00 0.000000000000e+00 0.000000000000e+00 
2.500000000000e+01 3.000000000000e+01 0.000000000000e+00 0.000000000000e+00 0.000000000000e+00 
2.600000000000e+01 3.000000000000e+01 0.000000000000e+00 0.000000000000e+00 0.000000000000e+00 
2.700000000000e+01 3.000000000000e+01 0.000000000000e+00 0.000000000000e+00 0.000000000000e+00 
2.800000000000e+01 3.000000000000e+01 0.000000000000e+00 0.000000000000e+00 0.000000000000e+00 
2.900000000000e+01 3.000000000000e+01 0.000000000000e+00 0.000000000000e+00 0.000000000000e+00 
3.000000000000e+01 3.000000000000e+01 0.000000000000e+00 0.000000000000e+00 0.000000000000e+00 
 TITLE = "Profiles along polylines"
 VARIABLES = "DIST" "HEAD" "VELOCITY_X1" "VELOCITY_Y1" "VELOCITY_Z1" 
 ZONE T="TIME=1.797693134862e+308"
0.000000000000e+00 3.023051062261e+01 9.178805566280e-09 -5.623267328232e-12 0.000000000000e+00 
1.000000000000e+00 3.023051112441e+01 3.269939941411e-08 -2.565637917107e-11 0.000000000000e+00 
2.000000000000e+00 3.023051179007e+01 2.941215341709e-08 -6.370982996050e-11 0.000000000000e+00 
3.000000000000e+00 3.023053749553e+01 2.501020092912e-09 -8.326282268936e-11 0.000000000000e+00 
4.000000000000e+00 3.023056646391e+01 2.006625684481e-07 -2.077913674249e-10 0.000000000000e+00 
5.000000000000e+00 3.023056714314e+01 2.055643158992e-07 -4.567952921930e-10 0.000000000000e+00 
6.000000000000e+00 3.023060627123e+01 1.217258609992e-08 -5.902673661174e-10 0.000000000000e+00 
7.000000000000e+00 3.023064659280e+01 1.062879241681e-08 -6.042511311131e-10 0.000000000000e+00 
8.000000000000e+00 3.023070149679e+01 3.262559593862e-07 -8.109924467777e-10 0.000000000000e+00 
9.000000000000e+00 3.023070278443e+01 3.308083105436e-07 -1.214241073435e-09 0.000000000000e+00 
1.000000000000e+01 3.023076652164e+01 2.765460282829e-08 -1.434249684311e-09 0.000000000000e+00 
1.100000000000e+01 3.023079858028e+01 1.917754039975e-08 -1.463011130017e-09 0.000000000000e+00 
1.200000000000e+01 3.023175500427e+01 3.718554527325e-08 -1.497824836287e-09 0.000000000000e+00 
1.300000000000e+01 3.023177207022e+01 4.489662844938e-07 -1.799004826152e-09 0.000000000000e+00 
1.400000000000e+01 3.023177413613e+01 4.140451440511e-07 -2.333682296689e-09 0.000000000000e+00 
1.500000000000e+01 3.023242527913e+01 2.189999495878e-09 -2.591577813492e-09 0.000000000000e+00 
1.600000000000e+01 3.023433592249e+01 1.952665446591e-08 -2.605296738101e-09 0.000000000000e+00 
1.700000000000e+01 3.023439269695e+01 2.878321234725e-08 -2.635872089584e-09 0.000000000000e+00 
1.800000000000e+01 3.023450396879e+01 1.855834765559e-08 -2.665851009478e-09 0.000000000000e+00 
1.900000000000e+01 3.023462998273e+01 1.409187242863e-07 -2.766980602865e-09 0.000000000000e+00 
2.000000000000e+01 3.023463887645e+01 1.325099108557e-07 -2.940401694300e-09 0.000000000000e+00 
2.100000000000e+01 3.023835896821e+01 2.421741259068e-08 -3.040247045358e-09 0.000000000000e+00 
2.200000000000e+01 3.023841184847e+01 8.408748708682e-08 -3.110910231798e-09 0.000000000000e+00 
2.300000000000e+01 3.023843357899e+01 6.028215641377e-08 -3.205119908281e-09 0.000000000000e+00 
2.400000000000e+01 3.025605104075e+01 1.100305869575e-08 -3.252514565179e-09 0.000000000000e+00 
2.500000000000e+01 3.025617663716e+01 1.230524687435e-08 -3.269580125987e-09 0.000000000000e+00 
2.600000000000e+01 3.025717784709e+01 5.728411631892e-07 -3.700613821027e-09 0.000000000000e+00 
2.700000000000e+01 3.025718088661e+01 8.116888737299e-07 -4.720665742843e-09 0.000000000000e+00 
2.800000000000e+01 3.025719021490e+01 2.474016916140e-07 -5.500975797795e-09 0.000000000000e+00 
2.900000000000e+01 3.025752394531e+01 3.288943300103e-08 -5.707486333165e-09 0.000000000000e+00 
3.000000000000e+01 3.025761785903e+01 5.142889222171e-08 -5.731717988003e-09 0.000000000000e+00 
