VARIABLES = "X","Y","Z",VELOCITY1_X,VELOCITY1_Y,VELOCITY1_Z
ZONE T="0.000000000000e+00s", 
0.000000000000e+00 0.000000000000e+00 5.000000000000e-01 0.000000000000e+00 0.000000000000e+00 0.000000000000e+00
0.000000000000e+00 0.000000000000e+00 1.500000000000e+00 0.000000000000e+00 0.000000000000e+00 0.000000000000e+00
0.000000000000e+00 0.000000000000e+00 2.500000000000e+00 0.000000000000e+00 0.000000000000e+00 0.000000000000e+00
0.000000000000e+00 0.000000000000e+00 3.500000000000e+00 0.000000000000e+00 0.000000000000e+00 0.000000000000e+00
0.000000000000e+00 0.000000000000e+00 4.500000000000e+00 0.000000000000e+00 0.000000000000e+00 0.000000000000e+00
0.000000000000e+00 0.000000000000e+00 5.500000000000e+00 0.000000000000e+00 0.000000000000e+00 0.000000000000e+00
0.000000000000e+00 0.000000000000e+00 6.500000000000e+00 0.000000000000e+00 0.000000000000e+00 0.000000000000e+00
0.000000000000e+00 0.000000000000e+00 7.500000000000e+00 0.000000000000e+00 0.000000000000e+00 0.000000000000e+00
0.000000000000e+00 0.000000000000e+00 8.500000000000e+00 0.000000000000e+00 0.000000000000e+00 0.000000000000e+00
0.000000000000e+00 0.000000000000e+00 9.500000000000e+00 0.000000000000e+00 0.000000000000e+00 0.000000000000e+00
0.000000000000e+00 0.000000000000e+00 1.050000000000e+01 0.000000000000e+00 0.000000000000e+00 0.000000000000e+00
0.000000000000e+00 0.000000000000e+00 1.150000000000e+01 0.000000000000e+00 0.000000000000e+00 0.000000000000e+00
0.000000000000e+00 0.000000000000e+00 1.250000000000e+01 0.000000000000e+00 0.000000000000e+00 0.000000000000e+00
0.000000000000e+00 0.000000000000e+00 1.350000000000e+01 0.000000000000e+00 0.000000000000e+00 0.000000000000e+00
0.000000000000e+00 0.000000000000e+00 1.450000000000e+01 0.000000000000e+00 0.000000000000e+00 0.000000000000e+00
0.000000000000e+00 0.000000000000e+00 1.550000000000e+01 0.000000000000e+00 0.000000000000e+00 0.000000000000e+00
0.000000000000e+00 0.000000000000e+00 1.650000000000e+01 0.000000000000e+00 0.000000000000e+00 0.000000000000e+00
0.000000000000e+00 0.000000000000e+00 1.750000000000e+01 0.000000000000e+00 0.000000000000e+00 0.000000000000e+00
0.000000000000e+00 0.000000000000e+00 1.850000000000e+01 0.000000000000e+00 0.000000000000e+00 0.000000000000e+00
0.000000000000e+00 0.000000000000e+00 1.950000000000e+01 0.000000000000e+00 0.000000000000e+00 0.000000000000e+00
0.000000000000e+00 0.000000000000e+00 2.050000000000e+01 0.000000000000e+00 0.000000000000e+00 0.000000000000e+00
0.000000000000e+00 0.000000000000e+00 2.150000000000e+01 0.000000000000e+00 0.000000000000e+00 0.000000000000e+00
0.000000000000e+00 0.000000000000e+00 2.250000000000e+01 0.000000000000e+00 0.000000000000e+00 0.000000000000e+00
0.000000000000e+00 0.000000000000e+00 2.350000000000e+01 0.000000000000e+00 0.000000000000e+00 0.000000000000e+00
0.000000000000e+00 0.000000000000e+00 2.450000000000e+01 0.000000000000e+00 0.000000000000e+00 0.000000000000e+00
0.000000000000e+00 0.000000000000e+00 2.550000000000e+01 0.000000000000e+00 0.000000000000e+00 0.000000000000e+00
0.000000000000e+00 0.000000000000e+00 2.650000000000e+01 0.000000000000e+00 0.000000000000e+00 0.000000000000e+00
0.000000000000e+00 0.000000000000e+00 2.750000000000e+01 0.000000000000e+00 0.000000000000e+00 0.000000000000e+00
0.000000000000e+00 0.000000000000e+00 2.850000000000e+01 0.000000000000e+00 0.000000000000e+00 0.000000000000e+00
0.000000000000e+00 0.000000000000e+00 2.950000000000e+01 0.000000000000e+00 0.000000000000e+00 0.000000000000e+00
VARIABLES = "X","Y","Z",VELOCITY1_X,VELOCITY1_Y,VELOCITY1_Z
ZONE T="1.797693134862e+308s", 
0.000000000000e+00 0.000000000000e+00 5.000000000000e-01 5.557911724567e-10 -5.557907496156e-10 0.000000000000e+00
0.000000000000e+00 0.000000000000e+00 1.500000000000e+00 3.373724374712e-11 -1.145317977266e-09 0.000000000000e+00
0.000000000000e+00 0.000000000000e+00 2.500000000000e+00 8.233538406145e-12 -1.187288670128e-09 0.000000000000e+00
0.000000000000e+00 0.000000000000e+00 3.500000000000e+00 2.198943524774e-12 -1.197721109443e-09 0.000000000000e+00
0.000000000000e+00 0.000000000000e+00 4.500000000000e+00 3.194637412005e-11 -1.231866543366e-09 0.000000000000e+00
0.000000000000e+00 0.000000000000e+00 5.500000000000e+00 1.810179819985e-12 -1.265622133197e-09 0.000000000000e+00
0.000000000000e+00 0.000000000000e+00 6.500000000000e+00 2.502346409816e-11 -1.292455653055e-09 0.000000000000e+00
0.000000000000e+00 0.000000000000e+00 7.500000000000e+00 2.548671427403e-11 -1.342965712329e-09 0.000000000000e+00
0.000000000000e+00 0.000000000000e+00 8.500000000000e+00 1.775349374509e-10 -1.545987251771e-09 0.000000000000e+00
0.000000000000e+00 0.000000000000e+00 9.500000000000e+00 4.926217073832e-11 -1.772783492031e-09 0.000000000000e+00
0.000000000000e+00 0.000000000000e+00 1.050000000000e+01 3.151805226981e-10 -2.137226771151e-09 0.000000000000e+00
0.000000000000e+00 0.000000000000e+00 1.150000000000e+01 1.229189668983e-11 -2.464694915690e-09 0.000000000000e+00
0.000000000000e+00 0.000000000000e+00 1.250000000000e+01 1.174620751745e-11 -2.488732979012e-09 0.000000000000e+00
0.000000000000e+00 0.000000000000e+00 1.350000000000e+01 8.195232037987e-12 -2.508674336294e-09 0.000000000000e+00
0.000000000000e+00 0.000000000000e+00 1.450000000000e+01 7.499270293259e-10 -3.266831442126e-09 0.000000000000e+00
0.000000000000e+00 0.000000000000e+00 1.550000000000e+01 4.342557479884e-10 -4.450670547175e-09 0.000000000000e+00
0.000000000000e+00 0.000000000000e+00 1.650000000000e+01 1.018427097382e-13 -4.884714848281e-09 0.000000000000e+00
0.000000000000e+00 0.000000000000e+00 1.750000000000e+01 1.618146170891e-12 -4.886434762776e-09 0.000000000000e+00
0.000000000000e+00 0.000000000000e+00 1.850000000000e+01 6.194701904193e-12 -4.894247529481e-09 0.000000000000e+00
0.000000000000e+00 0.000000000000e+00 1.950000000000e+01 8.524021504199e-13 -4.901294309694e-09 0.000000000000e+00
0.000000000000e+00 0.000000000000e+00 2.050000000000e+01 1.757593538963e-12 -4.903904243317e-09 0.000000000000e+00
0.000000000000e+00 0.000000000000e+00 2.150000000000e+01 9.413735493155e-12 -4.915075535004e-09 0.000000000000e+00
0.000000000000e+00 0.000000000000e+00 2.250000000000e+01 6.149485739873e-12 -4.930638225875e-09 0.000000000000e+00
0.000000000000e+00 0.000000000000e+00 2.350000000000e+01 1.318543060946e-11 -4.949972738524e-09 0.000000000000e+00
0.000000000000e+00 0.000000000000e+00 2.450000000000e+01 4.494273311873e-13 -4.963606870814e-09 0.000000000000e+00
0.000000000000e+00 0.000000000000e+00 2.550000000000e+01 3.794216111051e-11 -5.001998438962e-09 0.000000000000e+00
0.000000000000e+00 0.000000000000e+00 2.650000000000e+01 2.692129917401e-10 -5.309152640585e-09 0.000000000000e+00
0.000000000000e+00 0.000000000000e+00 2.750000000000e+01 8.053354449206e-11 -5.658882622339e-09 0.000000000000e+00
0.000000000000e+00 0.000000000000e+00 2.850000000000e+01 7.502089131686e-13 -5.740159290093e-09 0.000000000000e+00
0.000000000000e+00 0.000000000000e+00 2.950000000000e+01 1.435091024401e-11 -5.755260537708e-09 0.000000000000e+00
