VARIABLES = "X","Y","Z",VELOCITY1_X,VELOCITY1_Y,VELOCITY1_Z
ZONE T="0.000000000000e+00s", 
9.890000000000e+02 0.000000000000e+00 5.000000000000e-01 0.000000000000e+00 0.000000000000e+00 0.000000000000e+00
9.900000000000e+02 0.000000000000e+00 5.000000000000e-01 0.000000000000e+00 0.000000000000e+00 0.000000000000e+00
9.890000000000e+02 0.000000000000e+00 1.500000000000e+00 0.000000000000e+00 0.000000000000e+00 0.000000000000e+00
9.900000000000e+02 0.000000000000e+00 1.500000000000e+00 0.000000000000e+00 0.000000000000e+00 0.000000000000e+00
9.890000000000e+02 0.000000000000e+00 2.500000000000e+00 0.000000000000e+00 0.000000000000e+00 0.000000000000e+00
9.900000000000e+02 0.000000000000e+00 2.500000000000e+00 0.000000000000e+00 0.000000000000e+00 0.000000000000e+00
9.890000000000e+02 0.000000000000e+00 3.500000000000e+00 0.000000000000e+00 0.000000000000e+00 0.000000000000e+00
9.900000000000e+02 0.000000000000e+00 3.500000000000e+00 0.000000000000e+00 0.000000000000e+00 0.000000000000e+00
9.890000000000e+02 0.000000000000e+00 4.500000000000e+00 0.000000000000e+00 0.000000000000e+00 0.000000000000e+00
9.900000000000e+02 0.000000000000e+00 4.500000000000e+00 0.000000000000e+00 0.000000000000e+00 0.000000000000e+00
9.890000000000e+02 0.000000000000e+00 5.500000000000e+00 0.000000000000e+00 0.000000000000e+00 0.000000000000e+00
9.900000000000e+02 0.000000000000e+00 5.500000000000e+00 0.000000000000e+00 0.000000000000e+00 0.000000000000e+00
9.890000000000e+02 0.000000000000e+00 6.500000000000e+00 0.000000000000e+00 0.000000000000e+00 0.000000000000e+00
9.900000000000e+02 0.000000000000e+00 6.500000000000e+00 0.000000000000e+00 0.000000000000e+00 0.000000000000e+00
9.890000000000e+02 0.000000000000e+00 7.500000000000e+00 0.000000000000e+00 0.000000000000e+00 0.000000000000e+00
9.900000000000e+02 0.000000000000e+00 7.500000000000e+00 0.000000000000e+00 0.000000000000e+00 0.000000000000e+00
9.890000000000e+02 0.000000000000e+00 8.500000000000e+00 0.000000000000e+00 0.000000000000e+00 0.000000000000e+00
9.900000000000e+02 0.000000000000e+00 8.500000000000e+00 0.000000000000e+00 0.000000000000e+00 0.000000000000e+00
9.890000000000e+02 0.000000000000e+00 9.500000000000e+00 0.000000000000e+00 0.000000000000e+00 0.000000000000e+00
9.900000000000e+02 0.000000000000e+00 9.500000000000e+00 0.000000000000e+00 0.000000000000e+00 0.000000000000e+00
9.890000000000e+02 0.000000000000e+00 1.050000000000e+01 0.000000000000e+00 0.000000000000e+00 0.000000000000e+00
9.900000000000e+02 0.000000000000e+00 1.050000000000e+01 0.000000000000e+00 0.000000000000e+00 0.000000000000e+00
9.890000000000e+02 0.000000000000e+00 1.150000000000e+01 0.000000000000e+00 0.000000000000e+00 0.000000000000e+00
9.900000000000e+02 0.000000000000e+00 1.150000000000e+01 0.000000000000e+00 0.000000000000e+00 0.000000000000e+00
9.890000000000e+02 0.000000000000e+00 1.250000000000e+01 0.000000000000e+00 0.000000000000e+00 0.000000000000e+00
9.900000000000e+02 0.000000000000e+00 1.250000000000e+01 0.000000000000e+00 0.000000000000e+00 0.000000000000e+00
9.890000000000e+02 0.000000000000e+00 1.350000000000e+01 0.000000000000e+00 0.000000000000e+00 0.000000000000e+00
9.900000000000e+02 0.000000000000e+00 1.350000000000e+01 0.000000000000e+00 0.000000000000e+00 0.000000000000e+00
9.890000000000e+02 0.000000000000e+00 1.450000000000e+01 0.000000000000e+00 0.000000000000e+00 0.000000000000e+00
9.900000000000e+02 0.000000000000e+00 1.450000000000e+01 0.000000000000e+00 0.000000000000e+00 0.000000000000e+00
9.890000000000e+02 0.000000000000e+00 1.550000000000e+01 0.000000000000e+00 0.000000000000e+00 0.000000000000e+00
9.900000000000e+02 0.000000000000e+00 1.550000000000e+01 0.000000000000e+00 0.000000000000e+00 0.000000000000e+00
9.890000000000e+02 0.000000000000e+00 1.650000000000e+01 0.000000000000e+00 0.000000000000e+00 0.000000000000e+00
9.900000000000e+02 0.000000000000e+00 1.650000000000e+01 0.000000000000e+00 0.000000000000e+00 0.000000000000e+00
9.890000000000e+02 0.000000000000e+00 1.750000000000e+01 0.000000000000e+00 0.000000000000e+00 0.000000000000e+00
9.900000000000e+02 0.000000000000e+00 1.750000000000e+01 0.000000000000e+00 0.000000000000e+00 0.000000000000e+00
9.890000000000e+02 0.000000000000e+00 1.850000000000e+01 0.000000000000e+00 0.000000000000e+00 0.000000000000e+00
9.900000000000e+02 0.000000000000e+00 1.850000000000e+01 0.000000000000e+00 0.000000000000e+00 0.000000000000e+00
9.890000000000e+02 0.000000000000e+00 1.950000000000e+01 0.000000000000e+00 0.000000000000e+00 0.000000000000e+00
9.900000000000e+02 0.000000000000e+00 1.950000000000e+01 0.000000000000e+00 0.000000000000e+00 0.000000000000e+00
9.890000000000e+02 0.000000000000e+00 2.050000000000e+01 0.000000000000e+00 0.000000000000e+00 0.000000000000e+00
9.900000000000e+02 0.000000000000e+00 2.050000000000e+01 0.000000000000e+00 0.000000000000e+00 0.000000000000e+00
9.890000000000e+02 0.000000000000e+00 2.150000000000e+01 0.000000000000e+00 0.000000000000e+00 0.000000000000e+00
9.900000000000e+02 0.000000000000e+00 2.150000000000e+01 0.000000000000e+00 0.000000000000e+00 0.000000000000e+00
9.890000000000e+02 0.000000000000e+00 2.250000000000e+01 0.000000000000e+00 0.000000000000e+00 0.000000000000e+00
9.900000000000e+02 0.000000000000e+00 2.250000000000e+01 0.000000000000e+00 0.000000000000e+00 0.000000000000e+00
9.890000000000e+02 0.000000000000e+00 2.350000000000e+01 0.000000000000e+00 0.000000000000e+00 0.000000000000e+00
9.900000000000e+02 0.000000000000e+00 2.350000000000e+01 0.000000000000e+00 0.000000000000e+00 0.000000000000e+00
9.890000000000e+02 0.000000000000e+00 2.450000000000e+01 0.000000000000e+00 0.000000000000e+00 0.000000000000e+00
9.900000000000e+02 0.000000000000e+00 2.450000000000e+01 0.000000000000e+00 0.000000000000e+00 0.000000000000e+00
9.890000000000e+02 0.000000000000e+00 2.550000000000e+01 0.000000000000e+00 0.000000000000e+00 0.000000000000e+00
9.900000000000e+02 0.000000000000e+00 2.550000000000e+01 0.000000000000e+00 0.000000000000e+00 0.000000000000e+00
9.890000000000e+02 0.000000000000e+00 2.650000000000e+01 0.000000000000e+00 0.000000000000e+00 0.000000000000e+00
9.900000000000e+02 0.000000000000e+00 2.650000000000e+01 0.000000000000e+00 0.000000000000e+00 0.000000000000e+00
9.890000000000e+02 0.000000000000e+00 2.750000000000e+01 0.000000000000e+00 0.000000000000e+00 0.000000000000e+00
9.900000000000e+02 0.000000000000e+00 2.750000000000e+01 0.000000000000e+00 0.000000000000e+00 0.000000000000e+00
9.890000000000e+02 0.000000000000e+00 2.850000000000e+01 0.000000000000e+00 0.000000000000e+00 0.000000000000e+00
9.900000000000e+02 0.000000000000e+00 2.850000000000e+01 0.000000000000e+00 0.000000000000e+00 0.000000000000e+00
9.890000000000e+02 0.000000000000e+00 2.950000000000e+01 0.000000000000e+00 0.000000000000e+00 0.000000000000e+00
9.900000000000e+02 0.000000000000e+00 2.950000000000e+01 0.000000000000e+00 0.000000000000e+00 0.000000000000e+00
VARIABLES = "X","Y","Z",VELOCITY1_X,VELOCITY1_Y,VELOCITY1_Z
ZONE T="1.797693134862e+308s", 
9.890000000000e+02 0.000000000000e+00 5.000000000000e-01 1.018889947547e-06 -5.627568244116e-11 0.000000000000e+00
9.900000000000e+02 0.000000000000e+00 5.000000000000e-01 1.018993399035e-06 -5.115323778595e-11 0.000000000000e+00
9.890000000000e+02 0.000000000000e+00 1.500000000000e+00 6.184951963557e-08 -1.159836053724e-10 0.000000000000e+00
9.900000000000e+02 0.000000000000e+00 1.500000000000e+00 6.185580313027e-08 -1.054262295296e-10 0.000000000000e+00
9.890000000000e+02 0.000000000000e+00 2.500000000000e+00 1.509785147650e-08 -1.202528646577e-10 0.000000000000e+00
9.900000000000e+02 0.000000000000e+00 2.500000000000e+00 1.509939418104e-08 -1.093069640833e-10 0.000000000000e+00
9.890000000000e+02 0.000000000000e+00 3.500000000000e+00 4.036027423229e-09 -1.213336777200e-10 0.000000000000e+00
9.900000000000e+02 0.000000000000e+00 3.500000000000e+00 4.036449503005e-09 -1.102895180731e-10 0.000000000000e+00
9.890000000000e+02 0.000000000000e+00 4.500000000000e+00 5.877912415987e-08 -1.251148946433e-10 0.000000000000e+00
9.900000000000e+02 0.000000000000e+00 4.500000000000e+00 5.878563329866e-08 -1.137281772865e-10 0.000000000000e+00
9.890000000000e+02 0.000000000000e+00 5.500000000000e+00 3.332471694158e-09 -1.288709955727e-10 0.000000000000e+00
9.900000000000e+02 0.000000000000e+00 5.500000000000e+00 3.332845620202e-09 -1.171440863484e-10 0.000000000000e+00
9.890000000000e+02 0.000000000000e+00 6.500000000000e+00 4.621276408502e-08 -1.321108645083e-10 0.000000000000e+00
9.900000000000e+02 0.000000000000e+00 6.500000000000e+00 4.621832602948e-08 -1.200917924580e-10 0.000000000000e+00
9.890000000000e+02 0.000000000000e+00 7.500000000000e+00 4.708064363804e-08 -1.382461601460e-10 0.000000000000e+00
9.900000000000e+02 0.000000000000e+00 7.500000000000e+00 4.708634270173e-08 -1.256739992968e-10 0.000000000000e+00
9.890000000000e+02 0.000000000000e+00 8.500000000000e+00 3.280327530125e-07 -1.630611399061e-10 0.000000000000e+00
9.900000000000e+02 0.000000000000e+00 8.500000000000e+00 3.280726807678e-07 -1.482528466763e-10 0.000000000000e+00
9.890000000000e+02 0.000000000000e+00 9.500000000000e+00 9.102768391398e-08 -1.908178225249e-10 0.000000000000e+00
9.900000000000e+02 0.000000000000e+00 9.500000000000e+00 9.103878195802e-08 -1.735085562237e-10 0.000000000000e+00
9.890000000000e+02 0.000000000000e+00 1.050000000000e+01 5.824968199967e-07 -2.356644458182e-10 0.000000000000e+00
9.900000000000e+02 0.000000000000e+00 1.050000000000e+01 5.825681879214e-07 -2.143166402648e-10 0.000000000000e+00
9.890000000000e+02 0.000000000000e+00 1.150000000000e+01 2.272046701379e-08 -2.760127731721e-10 0.000000000000e+00
9.900000000000e+02 0.000000000000e+00 1.150000000000e+01 2.272326515601e-08 -2.510319441042e-10 0.000000000000e+00
9.890000000000e+02 0.000000000000e+00 1.250000000000e+01 2.173536909413e-08 -2.790854241962e-10 0.000000000000e+00
9.900000000000e+02 0.000000000000e+00 1.250000000000e+01 2.173814464319e-08 -2.538291941560e-10 0.000000000000e+00
9.890000000000e+02 0.000000000000e+00 1.350000000000e+01 1.518226068478e-08 -2.817325423675e-10 0.000000000000e+00
9.900000000000e+02 0.000000000000e+00 1.350000000000e+01 1.518427595990e-08 -2.562401518780e-10 0.000000000000e+00
9.890000000000e+02 0.000000000000e+00 1.450000000000e+01 1.391186362818e-06 -3.877941012267e-10 0.000000000000e+00
9.900000000000e+02 0.000000000000e+00 1.450000000000e+01 1.391379661438e-06 -3.528992558092e-10 0.000000000000e+00
9.890000000000e+02 0.000000000000e+00 1.550000000000e+01 8.055186228403e-07 -5.536375611897e-10 0.000000000000e+00
9.900000000000e+02 0.000000000000e+00 1.550000000000e+01 8.056306855177e-07 -5.040443572651e-10 0.000000000000e+00
9.890000000000e+02 0.000000000000e+00 1.650000000000e+01 1.951013550543e-10 -6.146496527399e-10 0.000000000000e+00
9.900000000000e+02 0.000000000000e+00 1.650000000000e+01 1.951730367203e-10 -5.596536007106e-10 0.000000000000e+00
9.890000000000e+02 0.000000000000e+00 1.750000000000e+01 3.882258884145e-09 -6.184959276972e-10 0.000000000000e+00
9.900000000000e+02 0.000000000000e+00 1.750000000000e+01 3.889118796153e-09 -5.632514628132e-10 0.000000000000e+00
9.890000000000e+02 0.000000000000e+00 1.850000000000e+01 1.505639802324e-08 -6.370553935610e-10 0.000000000000e+00
9.900000000000e+02 0.000000000000e+00 1.850000000000e+01 1.508416962661e-08 -5.806188808649e-10 0.000000000000e+00
9.890000000000e+02 0.000000000000e+00 1.950000000000e+01 2.085138455967e-09 -6.541178879855e-10 0.000000000000e+00
9.900000000000e+02 0.000000000000e+00 1.950000000000e+01 2.089099829934e-09 -5.965927144948e-10 0.000000000000e+00
9.890000000000e+02 0.000000000000e+00 2.050000000000e+01 4.411073998852e-09 -6.614671396081e-10 0.000000000000e+00
9.900000000000e+02 0.000000000000e+00 2.050000000000e+01 4.420515544375e-09 -6.035068849603e-10 0.000000000000e+00
9.890000000000e+02 0.000000000000e+00 2.150000000000e+01 2.390772993991e-08 -6.952151633191e-10 0.000000000000e+00
9.900000000000e+02 0.000000000000e+00 2.150000000000e+01 2.396174724122e-08 -6.353345695215e-10 0.000000000000e+00
9.890000000000e+02 0.000000000000e+00 2.250000000000e+01 1.565917842842e-08 -7.430139704343e-10 0.000000000000e+00
9.900000000000e+02 0.000000000000e+00 2.250000000000e+01 1.569515526565e-08 -6.804551009879e-10 0.000000000000e+00
9.890000000000e+02 0.000000000000e+00 2.350000000000e+01 3.370186392110e-08 -8.043906024393e-10 0.000000000000e+00
9.900000000000e+02 0.000000000000e+00 2.350000000000e+01 3.378163795418e-08 -7.385338133895e-10 0.000000000000e+00
9.890000000000e+02 0.000000000000e+00 2.450000000000e+01 1.158366208194e-09 -8.485421376491e-10 0.000000000000e+00
9.900000000000e+02 0.000000000000e+00 2.450000000000e+01 1.161367560344e-09 -7.803865375908e-10 0.000000000000e+00
9.890000000000e+02 0.000000000000e+00 2.550000000000e+01 1.028908017028e-07 -1.057254781341e-09 0.000000000000e+00
9.900000000000e+02 0.000000000000e+00 2.550000000000e+01 1.032975469138e-07 -9.859595009382e-10 0.000000000000e+00
9.890000000000e+02 0.000000000000e+00 2.650000000000e+01 7.305017451120e-07 -2.739843836859e-09 0.000000000000e+00
9.900000000000e+02 0.000000000000e+00 2.650000000000e+01 7.334116375623e-07 -2.645048820851e-09 0.000000000000e+00
9.890000000000e+02 0.000000000000e+00 2.750000000000e+01 2.185606861895e-07 -4.663767447643e-09 0.000000000000e+00
9.900000000000e+02 0.000000000000e+00 2.750000000000e+01 2.194383052801e-07 -4.544118279998e-09 0.000000000000e+00
9.890000000000e+02 0.000000000000e+00 2.850000000000e+01 2.050377943315e-09 -5.122225136572e-09 0.000000000000e+00
9.900000000000e+02 0.000000000000e+00 2.850000000000e+01 2.062175084958e-09 -4.999685799561e-09 0.000000000000e+00
9.890000000000e+02 0.000000000000e+00 2.950000000000e+01 4.125161455077e-08 -5.451097437834e-09 0.000000000000e+00
9.900000000000e+02 0.000000000000e+00 2.950000000000e+01 4.198974552163e-08 -5.390601265232e-09 0.000000000000e+00
