VARIABLES = "Time","Value"
ZONE T=obs_00990
0.000000000000e+00 0.000000000000e+00
1.797693134862e+308 5.708992579555e-06
