 TITLE = "Profiles along polylines"
 VARIABLES = "DIST" "HEAD" "VELOCITY_X1" "VELOCITY_Y1" "VELOCITY_Z1" 
 ZONE T="TIME=0.000000000000e+00"
0.000000000000e+00 3.000000000000e+01 0.000000000000e+00 0.000000000000e+00 0.000000000000e+00 
1.000000000000e+00 3.000000000000e+01 0.000000000000e+00 0.000000000000e+00 0.000000000000e+00 
2.000000000000e+00 3.000000000000e+01 0.000000000000e+00 0.000000000000e+00 0.000000000000e+00 
3.000000000000e+00 3.000000000000e+01 0.000000000000e+00 0.000000000000e+00 0.000000000000e+00 
4.000000000000e+00 3.000000000000e+01 0.000000000000e+00 0.000000000000e+00 0.000000000000e+00 
5.000000000000e+00 3.000000000000e+01 0.000000000000e+00 0.000000000000e+00 0.000000000000e+00 
6.000000000000e+00 3.000000000000e+01 0.000000000000e+00 0.000000000000e+00 0.000000000000e+00 
7.000000000000e+00 3.000000000000e+01 0.000000000000e+00 0.000000000000e+00 0.000000000000e+00 
8.000000000000e+00 3.000000000000e+01 0.000000000000e+00 0.000000000000e+00 0.000000000000e+00 
9.000000000000e+00 3.000000000000e+01 0.000000000000e+00 0.000000000000e+00 0.000000000000e+00 
1.000000000000e+01 3.000000000000e+01 0.000000000000e+00 0.000000000000e+00 0.000000000000e+00 
1.100000000000e+01 3.000000000000e+01 0.000000000000e+00 0.000000000000e+00 0.000000000000e+00 
1.200000000000e+01 3.000000000000e+01 0.000000000000e+00 0.000000000000e+00 0.000000000000e+00 
1.300000000000e+01 3.000000000000e+01 0.000000000000e+00 0.000000000000e+00 0.000000000000e+00 
1.400000000000e+01 3.000000000000e+01 0.000000000000e+00 0.000000000000e+00 0.000000000000e+00 
1.500000000000e+01 3.000000000000e+01 0.000000000000e+00 0.000000000000e+00 0.000000000000e+00 
1.600000000000e+01 3.000000000000e+01 0.000000000000e+00 0.000000000000e+00 0.000000000000e+00 
1.700000000000e+01 3.000000000000e+01 0.000000000000e+00 0.000000000000e+00 0.000000000000e+00 
1.800000000000e+01 3.000000000000e+01 0.000000000000e+00 0.000000000000e+00 0.000000000000e+00 
1.900000000000e+01 3.000000000000e+01 0.000000000000e+00 0.000000000000e+00 0.000000000000e+00 
2.000000000000e+01 3.000000000000e+01 0.000000000000e+00 0.000000000000e+00 0.000000000000e+00 
2.100000000000e+01 3.000000000000e+01 0.000000000000e+00 0.000000000000e+00 0.000000000000e+00 
2.200000000000e+01 3.000000000000e+01 0.000000000000e+00 0.000000000000e+00 0.000000000000e+00 
2.300000000000e+01 3.000000000000e+01 0.000000000000e+00 0.000000000000e+00 0.000000000000e+00 
2.400000000000e+01 3.000000000000e+01 0.000000000000e+00 0.000000000000e+00 0.000000000000e+00 
2.500000000000e+01 3.000000000000e+01 0.000000000000e+00 0.000000000000e+00 0.000000000000e+00 
2.600000000000e+01 3.000000000000e+01 0.000000000000e+00 0.000000000000e+00 0.000000000000e+00 
2.700000000000e+01 3.000000000000e+01 0.000000000000e+00 0.000000000000e+00 0.000000000000e+00 
2.800000000000e+01 3.000000000000e+01 0.000000000000e+00 0.000000000000e+00 0.000000000000e+00 
2.900000000000e+01 3.000000000000e+01 0.000000000000e+00 0.000000000000e+00 0.000000000000e+00 
3.000000000000e+01 3.000000000000e+01 0.000000000000e+00 0.000000000000e+00 0.000000000000e+00 
 TITLE = "Profiles along polylines"
 VARIABLES = "DIST" "HEAD" "VELOCITY_X1" "VELOCITY_Y1" "VELOCITY_Z1" 
 ZONE T="TIME=1.797693134862e+308"
0.000000000000e+00 3.001039616294e+01 4.791281048373e-08 -2.963274342783e-12 0.000000000000e+00 
1.000000000000e+00 3.001039622721e+01 2.565803601940e-08 -4.550372557562e-12 0.000000000000e+00 
2.000000000000e+00 3.001039810145e+01 1.797494712421e-09 -6.249088276050e-12 0.000000000000e+00 
3.000000000000e+00 3.001043264015e+01 2.369873440793e-08 -7.936985495916e-12 0.000000000000e+00 
4.000000000000e+00 3.001043285031e+01 3.136945085988e-08 -1.160066667439e-11 0.000000000000e+00 
5.000000000000e+00 3.001043376929e+01 3.790274185615e-08 -1.621526691695e-11 0.000000000000e+00 
6.000000000000e+00 3.001043409360e+01 3.056068248526e-08 -2.078161562546e-11 0.000000000000e+00 
7.000000000000e+00 3.001046216327e+01 2.985426956216e-07 -4.401171446098e-11 0.000000000000e+00 
8.000000000000e+00 3.001046227762e+01 3.340089520368e-07 -8.891808115013e-11 0.000000000000e+00 
9.000000000000e+00 3.001046391861e+01 4.700549318737e-08 -1.159855784506e-10 0.000000000000e+00 
1.000000000000e+01 3.001046953490e+01 1.182776393542e-08 -1.201937221506e-10 0.000000000000e+00 
1.100000000000e+01 3.001055873202e+01 3.291758477265e-08 -1.239853197159e-10 0.000000000000e+00 
1.200000000000e+01 3.001056081161e+01 1.090881963791e-07 -1.366934688080e-10 0.000000000000e+00 
1.300000000000e+01 3.001056181698e+01 7.770141190397e-08 -1.534440751183e-10 0.000000000000e+00 
1.400000000000e+01 3.001066585309e+01 5.366041625159e-07 -2.215102204014e-10 0.000000000000e+00 
1.500000000000e+01 3.001066613416e+01 5.485069820936e-07 -3.451025574729e-10 0.000000000000e+00 
1.600000000000e+01 3.001068322291e+01 7.366388385101e-07 -4.973698353039e-10 0.000000000000e+00 
1.700000000000e+01 3.001068365579e+01 7.254988011827e-07 -6.757135716961e-10 0.000000000000e+00 
1.800000000000e+01 3.001094475890e+01 1.374350030251e-08 -7.681063227467e-10 0.000000000000e+00 
1.900000000000e+01 3.001097947352e+01 1.392323241658e-08 -7.760693966688e-10 0.000000000000e+00 
2.000000000000e+01 3.001122486547e+01 1.630267215134e-08 -7.874973234712e-10 0.000000000000e+00 
2.100000000000e+01 3.001125548002e+01 2.084694026544e-08 -8.044838824774e-10 0.000000000000e+00 
2.200000000000e+01 3.001132813582e+01 1.260125353182e-08 -8.206888998472e-10 0.000000000000e+00 
2.300000000000e+01 3.001140249384e+01 2.828258248439e-07 -9.879725345472e-10 0.000000000000e+00 
2.400000000000e+01 3.001140485266e+01 3.271652184495e-07 -1.335832292496e-09 0.000000000000e+00 
2.500000000000e+01 3.001142194157e+01 5.292868515444e-08 -1.554818729849e-09 0.000000000000e+00 
2.600000000000e+01 3.001182082392e+01 1.899166171181e-07 -1.839457957990e-09 0.000000000000e+00 
2.700000000000e+01 3.001182733827e+01 1.976046897043e-07 -2.357638435424e-09 0.000000000000e+00 
2.800000000000e+01 3.001198137086e+01 4.716610162627e-07 -3.402736300906e-09 0.000000000000e+00 
2.900000000000e+01 3.001198669654e+01 4.703958452388e-07 -4.961528871950e-09 0.000000000000e+00 
3.000000000000e+01 3.001237394952e+01 1.743094837259e-08 -5.740679715395e-09 0.000000000000e+00 
