VARIABLES = "X","Y","Z",VELOCITY1_X,VELOCITY1_Y,VELOCITY1_Z
ZONE T="0.000000000000e+00s", 
4.990000000000e+02 0.000000000000e+00 5.000000000000e-01 0.000000000000e+00 0.000000000000e+00 0.000000000000e+00
5.000000000000e+02 0.000000000000e+00 5.000000000000e-01 0.000000000000e+00 0.000000000000e+00 0.000000000000e+00
4.990000000000e+02 0.000000000000e+00 1.500000000000e+00 0.000000000000e+00 0.000000000000e+00 0.000000000000e+00
5.000000000000e+02 0.000000000000e+00 1.500000000000e+00 0.000000000000e+00 0.000000000000e+00 0.000000000000e+00
4.990000000000e+02 0.000000000000e+00 2.500000000000e+00 0.000000000000e+00 0.000000000000e+00 0.000000000000e+00
5.000000000000e+02 0.000000000000e+00 2.500000000000e+00 0.000000000000e+00 0.000000000000e+00 0.000000000000e+00
4.990000000000e+02 0.000000000000e+00 3.500000000000e+00 0.000000000000e+00 0.000000000000e+00 0.000000000000e+00
5.000000000000e+02 0.000000000000e+00 3.500000000000e+00 0.000000000000e+00 0.000000000000e+00 0.000000000000e+00
4.990000000000e+02 0.000000000000e+00 4.500000000000e+00 0.000000000000e+00 0.000000000000e+00 0.000000000000e+00
5.000000000000e+02 0.000000000000e+00 4.500000000000e+00 0.000000000000e+00 0.000000000000e+00 0.000000000000e+00
4.990000000000e+02 0.000000000000e+00 5.500000000000e+00 0.000000000000e+00 0.000000000000e+00 0.000000000000e+00
5.000000000000e+02 0.000000000000e+00 5.500000000000e+00 0.000000000000e+00 0.000000000000e+00 0.000000000000e+00
4.990000000000e+02 0.000000000000e+00 6.500000000000e+00 0.000000000000e+00 0.000000000000e+00 0.000000000000e+00
5.000000000000e+02 0.000000000000e+00 6.500000000000e+00 0.000000000000e+00 0.000000000000e+00 0.000000000000e+00
4.990000000000e+02 0.000000000000e+00 7.500000000000e+00 0.000000000000e+00 0.000000000000e+00 0.000000000000e+00
5.000000000000e+02 0.000000000000e+00 7.500000000000e+00 0.000000000000e+00 0.000000000000e+00 0.000000000000e+00
4.990000000000e+02 0.000000000000e+00 8.500000000000e+00 0.000000000000e+00 0.000000000000e+00 0.000000000000e+00
5.000000000000e+02 0.000000000000e+00 8.500000000000e+00 0.000000000000e+00 0.000000000000e+00 0.000000000000e+00
4.990000000000e+02 0.000000000000e+00 9.500000000000e+00 0.000000000000e+00 0.000000000000e+00 0.000000000000e+00
5.000000000000e+02 0.000000000000e+00 9.500000000000e+00 0.000000000000e+00 0.000000000000e+00 0.000000000000e+00
4.990000000000e+02 0.000000000000e+00 1.050000000000e+01 0.000000000000e+00 0.000000000000e+00 0.000000000000e+00
5.000000000000e+02 0.000000000000e+00 1.050000000000e+01 0.000000000000e+00 0.000000000000e+00 0.000000000000e+00
4.990000000000e+02 0.000000000000e+00 1.150000000000e+01 0.000000000000e+00 0.000000000000e+00 0.000000000000e+00
5.000000000000e+02 0.000000000000e+00 1.150000000000e+01 0.000000000000e+00 0.000000000000e+00 0.000000000000e+00
4.990000000000e+02 0.000000000000e+00 1.250000000000e+01 0.000000000000e+00 0.000000000000e+00 0.000000000000e+00
5.000000000000e+02 0.000000000000e+00 1.250000000000e+01 0.000000000000e+00 0.000000000000e+00 0.000000000000e+00
4.990000000000e+02 0.000000000000e+00 1.350000000000e+01 0.000000000000e+00 0.000000000000e+00 0.000000000000e+00
5.000000000000e+02 0.000000000000e+00 1.350000000000e+01 0.000000000000e+00 0.000000000000e+00 0.000000000000e+00
4.990000000000e+02 0.000000000000e+00 1.450000000000e+01 0.000000000000e+00 0.000000000000e+00 0.000000000000e+00
5.000000000000e+02 0.000000000000e+00 1.450000000000e+01 0.000000000000e+00 0.000000000000e+00 0.000000000000e+00
4.990000000000e+02 0.000000000000e+00 1.550000000000e+01 0.000000000000e+00 0.000000000000e+00 0.000000000000e+00
5.000000000000e+02 0.000000000000e+00 1.550000000000e+01 0.000000000000e+00 0.000000000000e+00 0.000000000000e+00
4.990000000000e+02 0.000000000000e+00 1.650000000000e+01 0.000000000000e+00 0.000000000000e+00 0.000000000000e+00
5.000000000000e+02 0.000000000000e+00 1.650000000000e+01 0.000000000000e+00 0.000000000000e+00 0.000000000000e+00
4.990000000000e+02 0.000000000000e+00 1.750000000000e+01 0.000000000000e+00 0.000000000000e+00 0.000000000000e+00
5.000000000000e+02 0.000000000000e+00 1.750000000000e+01 0.000000000000e+00 0.000000000000e+00 0.000000000000e+00
4.990000000000e+02 0.000000000000e+00 1.850000000000e+01 0.000000000000e+00 0.000000000000e+00 0.000000000000e+00
5.000000000000e+02 0.000000000000e+00 1.850000000000e+01 0.000000000000e+00 0.000000000000e+00 0.000000000000e+00
4.990000000000e+02 0.000000000000e+00 1.950000000000e+01 0.000000000000e+00 0.000000000000e+00 0.000000000000e+00
5.000000000000e+02 0.000000000000e+00 1.950000000000e+01 0.000000000000e+00 0.000000000000e+00 0.000000000000e+00
4.990000000000e+02 0.000000000000e+00 2.050000000000e+01 0.000000000000e+00 0.000000000000e+00 0.000000000000e+00
5.000000000000e+02 0.000000000000e+00 2.050000000000e+01 0.000000000000e+00 0.000000000000e+00 0.000000000000e+00
4.990000000000e+02 0.000000000000e+00 2.150000000000e+01 0.000000000000e+00 0.000000000000e+00 0.000000000000e+00
5.000000000000e+02 0.000000000000e+00 2.150000000000e+01 0.000000000000e+00 0.000000000000e+00 0.000000000000e+00
4.990000000000e+02 0.000000000000e+00 2.250000000000e+01 0.000000000000e+00 0.000000000000e+00 0.000000000000e+00
5.000000000000e+02 0.000000000000e+00 2.250000000000e+01 0.000000000000e+00 0.000000000000e+00 0.000000000000e+00
4.990000000000e+02 0.000000000000e+00 2.350000000000e+01 0.000000000000e+00 0.000000000000e+00 0.000000000000e+00
5.000000000000e+02 0.000000000000e+00 2.350000000000e+01 0.000000000000e+00 0.000000000000e+00 0.000000000000e+00
4.990000000000e+02 0.000000000000e+00 2.450000000000e+01 0.000000000000e+00 0.000000000000e+00 0.000000000000e+00
5.000000000000e+02 0.000000000000e+00 2.450000000000e+01 0.000000000000e+00 0.000000000000e+00 0.000000000000e+00
4.990000000000e+02 0.000000000000e+00 2.550000000000e+01 0.000000000000e+00 0.000000000000e+00 0.000000000000e+00
5.000000000000e+02 0.000000000000e+00 2.550000000000e+01 0.000000000000e+00 0.000000000000e+00 0.000000000000e+00
4.990000000000e+02 0.000000000000e+00 2.650000000000e+01 0.000000000000e+00 0.000000000000e+00 0.000000000000e+00
5.000000000000e+02 0.000000000000e+00 2.650000000000e+01 0.000000000000e+00 0.000000000000e+00 0.000000000000e+00
4.990000000000e+02 0.000000000000e+00 2.750000000000e+01 0.000000000000e+00 0.000000000000e+00 0.000000000000e+00
5.000000000000e+02 0.000000000000e+00 2.750000000000e+01 0.000000000000e+00 0.000000000000e+00 0.000000000000e+00
4.990000000000e+02 0.000000000000e+00 2.850000000000e+01 0.000000000000e+00 0.000000000000e+00 0.000000000000e+00
5.000000000000e+02 0.000000000000e+00 2.850000000000e+01 0.000000000000e+00 0.000000000000e+00 0.000000000000e+00
4.990000000000e+02 0.000000000000e+00 2.950000000000e+01 0.000000000000e+00 0.000000000000e+00 0.000000000000e+00
5.000000000000e+02 0.000000000000e+00 2.950000000000e+01 0.000000000000e+00 0.000000000000e+00 0.000000000000e+00
VARIABLES = "X","Y","Z",VELOCITY1_X,VELOCITY1_Y,VELOCITY1_Z
ZONE T="1.797693134862e+308s", 
4.990000000000e+02 0.000000000000e+00 5.000000000000e-01 2.546000053702e-08 -2.548788281653e-11 0.000000000000e+00
5.000000000000e+02 0.000000000000e+00 5.000000000000e-01 2.551097780082e-08 -2.548788003189e-11 0.000000000000e+00
4.990000000000e+02 0.000000000000e+00 1.500000000000e+00 1.808264552408e-09 -5.278282033163e-11 0.000000000000e+00
5.000000000000e+02 0.000000000000e+00 1.500000000000e+00 1.811885148671e-09 -5.278280610346e-11 0.000000000000e+00
4.990000000000e+02 0.000000000000e+00 2.500000000000e+00 1.016948497651e-10 -5.469467103691e-11 0.000000000000e+00
5.000000000000e+02 0.000000000000e+00 2.500000000000e+00 1.018984682501e-10 -5.469465626471e-11 0.000000000000e+00
4.990000000000e+02 0.000000000000e+00 3.500000000000e+00 2.499719477115e-08 -7.982109225243e-11 0.000000000000e+00
5.000000000000e+02 0.000000000000e+00 3.500000000000e+00 2.504724547633e-08 -7.982107343598e-11 0.000000000000e+00
4.990000000000e+02 0.000000000000e+00 4.500000000000e+00 8.224945567826e-09 -1.130762061609e-10 0.000000000000e+00
5.000000000000e+02 0.000000000000e+00 4.500000000000e+00 8.241413989287e-09 -1.130761795966e-10 0.000000000000e+00
4.990000000000e+02 0.000000000000e+00 5.500000000000e+00 3.191284476902e-08 -1.532569679714e-10 0.000000000000e+00
5.000000000000e+02 0.000000000000e+00 5.500000000000e+00 3.197674236052e-08 -1.532569379951e-10 0.000000000000e+00
4.990000000000e+02 0.000000000000e+00 6.500000000000e+00 4.489444867680e-10 -1.856509330322e-10 0.000000000000e+00
5.000000000000e+02 0.000000000000e+00 6.500000000000e+00 4.498433874526e-10 -1.856508910497e-10 0.000000000000e+00
4.990000000000e+02 0.000000000000e+00 7.500000000000e+00 3.148494180783e-07 -5.012956071474e-10 0.000000000000e+00
5.000000000000e+02 0.000000000000e+00 7.500000000000e+00 3.154798273250e-07 -5.012955240959e-10 0.000000000000e+00
4.990000000000e+02 0.000000000000e+00 8.500000000000e+00 3.790193374500e-08 -8.543935654394e-10 0.000000000000e+00
5.000000000000e+02 0.000000000000e+00 8.500000000000e+00 3.797782313060e-08 -8.543934049864e-10 0.000000000000e+00
4.990000000000e+02 0.000000000000e+00 9.500000000000e+00 1.173352009712e-08 -9.040792391548e-10 0.000000000000e+00
5.000000000000e+02 0.000000000000e+00 9.500000000000e+00 1.175701361494e-08 -9.040790684721e-10 0.000000000000e+00
4.990000000000e+02 0.000000000000e+00 1.050000000000e+01 7.493986475581e-10 -9.165753926090e-10 0.000000000000e+00
5.000000000000e+02 0.000000000000e+00 1.050000000000e+01 7.508991370075e-10 -9.165752185949e-10 0.000000000000e+00
4.990000000000e+02 0.000000000000e+00 1.150000000000e+01 3.370199382875e-08 -9.510647390221e-10 0.000000000000e+00
5.000000000000e+02 0.000000000000e+00 1.150000000000e+01 3.376947416787e-08 -9.510645607892e-10 0.000000000000e+00
4.990000000000e+02 0.000000000000e+00 1.250000000000e+01 8.044704416297e-08 -1.065334126159e-09 0.000000000000e+00
5.000000000000e+02 0.000000000000e+00 1.250000000000e+01 8.060812050866e-08 -1.065333947080e-09 0.000000000000e+00
4.990000000000e+02 0.000000000000e+00 1.350000000000e+01 8.514905817341e-10 -1.146712700009e-09 0.000000000000e+00
5.000000000000e+02 0.000000000000e+00 1.350000000000e+01 8.531954928796e-10 -1.146712502782e-09 0.000000000000e+00
4.990000000000e+02 0.000000000000e+00 1.450000000000e+01 5.552095575516e-07 -1.703388456855e-09 0.000000000000e+00
5.000000000000e+02 0.000000000000e+00 1.450000000000e+01 5.563212388136e-07 -1.703388224672e-09 0.000000000000e+00
4.990000000000e+02 0.000000000000e+00 1.550000000000e+01 1.317136326472e-08 -2.272327400603e-09 0.000000000000e+00
5.000000000000e+02 0.000000000000e+00 1.550000000000e+01 1.319773593402e-08 -2.272327178837e-09 0.000000000000e+00
4.990000000000e+02 0.000000000000e+00 1.650000000000e+01 7.489794209588e-07 -3.035319412311e-09 0.000000000000e+00
5.000000000000e+02 0.000000000000e+00 1.650000000000e+01 7.504790828301e-07 -3.035319171376e-09 0.000000000000e+00
4.990000000000e+02 0.000000000000e+00 1.750000000000e+01 1.616398617490e-09 -3.786653366434e-09 0.000000000000e+00
5.000000000000e+02 0.000000000000e+00 1.750000000000e+01 1.619635090564e-09 -3.786653112678e-09 0.000000000000e+00
4.990000000000e+02 0.000000000000e+00 1.850000000000e+01 1.227888607800e-08 -3.800563860927e-09 0.000000000000e+00
5.000000000000e+02 0.000000000000e+00 1.850000000000e+01 1.230347180795e-08 -3.800563607105e-09 0.000000000000e+00
4.990000000000e+02 0.000000000000e+00 1.950000000000e+01 1.755726961752e-09 -3.814612553042e-09 0.000000000000e+00
5.000000000000e+02 0.000000000000e+00 1.950000000000e+01 1.759242414556e-09 -3.814612299734e-09 0.000000000000e+00
4.990000000000e+02 0.000000000000e+00 2.050000000000e+01 1.433560354426e-08 -3.830721546931e-09 0.000000000000e+00
5.000000000000e+02 0.000000000000e+00 2.050000000000e+01 1.436430744190e-08 -3.830721293942e-09 0.000000000000e+00
4.990000000000e+02 0.000000000000e+00 2.150000000000e+01 6.188101607331e-09 -3.851266099681e-09 0.000000000000e+00
5.000000000000e+02 0.000000000000e+00 2.150000000000e+01 6.200491923076e-09 -3.851265848664e-09 0.000000000000e+00
4.990000000000e+02 0.000000000000e+00 2.250000000000e+01 6.142915470872e-09 -3.863610069389e-09 0.000000000000e+00
5.000000000000e+02 0.000000000000e+00 2.250000000000e+01 6.155215315617e-09 -3.863609820166e-09 0.000000000000e+00
4.990000000000e+02 0.000000000000e+00 2.350000000000e+01 2.689272380376e-07 -4.138984908901e-09 0.000000000000e+00
5.000000000000e+02 0.000000000000e+00 2.350000000000e+01 2.694657062716e-07 -4.138984670134e-09 0.000000000000e+00
4.990000000000e+02 0.000000000000e+00 2.450000000000e+01 4.921055513121e-08 -4.457439233190e-09 0.000000000000e+00
5.000000000000e+02 0.000000000000e+00 2.450000000000e+01 4.930908853829e-08 -4.457439048609e-09 0.000000000000e+00
4.990000000000e+02 0.000000000000e+00 2.550000000000e+01 2.196642197247e-09 -4.508897949442e-09 0.000000000000e+00
5.000000000000e+02 0.000000000000e+00 2.550000000000e+01 2.201040495176e-09 -4.508897767910e-09 0.000000000000e+00
4.990000000000e+02 0.000000000000e+00 2.650000000000e+01 1.773489860993e-07 -4.688643012361e-09 0.000000000000e+00
5.000000000000e+02 0.000000000000e+00 2.650000000000e+01 1.777040891283e-07 -4.688642852620e-09 0.000000000000e+00
4.990000000000e+02 0.000000000000e+00 2.750000000000e+01 9.403758795506e-09 -4.875580813340e-09 0.000000000000e+00
5.000000000000e+02 0.000000000000e+00 2.750000000000e+01 9.422587790282e-09 -4.875580699478e-09 0.000000000000e+00
4.990000000000e+02 0.000000000000e+00 2.850000000000e+01 4.336583511769e-07 -5.319134167056e-09 0.000000000000e+00
5.000000000000e+02 0.000000000000e+00 2.850000000000e+01 4.345266584477e-07 -5.319134155896e-09 0.000000000000e+00
4.990000000000e+02 0.000000000000e+00 2.950000000000e+01 8.185942910505e-09 -5.761416172121e-09 0.000000000000e+00
5.000000000000e+02 0.000000000000e+00 2.950000000000e+01 8.202333495390e-09 -5.761416170857e-09 0.000000000000e+00
