 TITLE = "Profiles along polylines"
 VARIABLES = "DIST" "SATURATION1" 
 ZONE T="TIME=0.000000000000e+00"
0.000000000000e+00 1.000000000000e+00 
5.023511443667e-01 1.000000000000e+00 
9.996787804678e-01 1.000000000000e+00 
1.492033141008e+00 1.000000000000e+00 
1.979463956085e+00 1.000000000000e+00 
2.462020463241e+00 1.000000000000e+00 
2.939751407203e+00 1.000000000000e+00 
3.412705039729e+00 1.000000000000e+00 
3.880929132699e+00 1.000000000000e+00 
4.344470984477e+00 1.000000000000e+00 
4.803377419061e+00 1.000000000000e+00 
5.257694789126e+00 1.000000000000e+00 
5.707468985260e+00 1.000000000000e+00 
6.152745441858e+00 1.000000000000e+00 
6.593569132803e+00 1.000000000000e+00 
7.029984584063e+00 1.000000000000e+00 
7.462035882509e+00 1.000000000000e+00 
7.889766668024e+00 1.000000000000e+00 
8.313220145764e+00 1.000000000000e+00 
8.732439091408e+00 1.000000000000e+00 
9.147465846375e+00 1.000000000000e+00 
9.558342333195e+00 1.000000000000e+00 
9.965110057073e+00 1.000000000000e+00 
1.036781010429e+01 1.000000000000e+00 
1.076648315045e+01 1.000000000000e+00 
1.116116946540e+01 1.000000000000e+00 
1.155190891787e+01 1.000000000000e+00 
1.193874097353e+01 1.000000000000e+00 
1.232170470634e+01 1.000000000000e+00 
1.270083880294e+01 1.000000000000e+00 
1.307618156046e+01 1.000000000000e+00 
1.344777089085e+01 1.000000000000e+00 
1.381564432860e+01 1.000000000000e+00 
1.417983903150e+01 1.000000000000e+00 
1.454039178488e+01 1.000000000000e+00 
1.489733901232e+01 1.000000000000e+00 
1.525071676951e+01 1.000000000000e+00 
1.560056074825e+01 1.000000000000e+00 
1.594690628703e+01 1.000000000000e+00 
1.628978837134e+01 1.000000000000e+00 
1.662924163406e+01 1.000000000000e+00 
1.696530036249e+01 1.000000000000e+00 
1.729799850523e+01 1.000000000000e+00 
1.762736966548e+01 1.000000000000e+00 
1.795344711143e+01 1.000000000000e+00 
1.827626378268e+01 1.000000000000e+00 
1.859585228716e+01 1.000000000000e+00 
1.891224490721e+01 1.000000000000e+00 
1.922547360320e+01 1.000000000000e+00 
1.953557001297e+01 1.000000000000e+00 
1.984256545841e+01 1.000000000000e+00 
2.014649094826e+01 1.000000000000e+00 
2.044737718114e+01 1.000000000000e+00 
2.074525455164e+01 1.000000000000e+00 
2.104015314978e+01 1.000000000000e+00 
2.133210276364e+01 1.000000000000e+00 
2.162113288213e+01 1.000000000000e+00 
2.190727269749e+01 1.000000000000e+00 
2.219055111465e+01 1.000000000000e+00 
2.247099675018e+01 1.000000000000e+00 
2.274863792808e+01 1.000000000000e+00 
2.302350269226e+01 1.000000000000e+00 
2.329561880873e+01 1.000000000000e+00 
2.356501376456e+01 1.000000000000e+00 
2.383171476996e+01 1.000000000000e+00 
2.409574876737e+01 1.000000000000e+00 
2.435714242639e+01 1.000000000000e+00 
2.461592214625e+01 1.000000000000e+00 
2.487211406765e+01 1.000000000000e+00 
2.512574407129e+01 1.000000000000e+00 
2.537683777640e+01 1.000000000000e+00 
2.562542054256e+01 1.000000000000e+00 
2.587151748159e+01 1.000000000000e+00 
2.611515345238e+01 1.000000000000e+00 
2.635635306271e+01 1.000000000000e+00 
2.659514067751e+01 1.000000000000e+00 
2.683154041702e+01 1.000000000000e+00 
2.706557615834e+01 1.000000000000e+00 
2.729727154026e+01 1.000000000000e+00 
2.752664996800e+01 1.000000000000e+00 
2.775373461120e+01 1.000000000000e+00 
2.797854840863e+01 1.000000000000e+00 
2.820111406940e+01 1.000000000000e+00 
2.842145407423e+01 1.000000000000e+00 
2.863959067996e+01 1.000000000000e+00 
2.885554591724e+01 1.000000000000e+00 
2.906934160231e+01 1.000000000000e+00 
2.928099933335e+01 1.000000000000e+00 
2.949054048608e+01 1.000000000000e+00 
2.969798622754e+01 1.000000000000e+00 
2.990335751034e+01 1.000000000000e+00 
3.010667508036e+01 1.000000000000e+00 
3.030795947741e+01 1.000000000000e+00 
3.050723102941e+01 1.000000000000e+00 
3.070450986321e+01 1.000000000000e+00 
3.089981590866e+01 1.000000000000e+00 
3.109316889580e+01 1.000000000000e+00 
3.128458835220e+01 1.000000000000e+00 
3.147409361367e+01 1.000000000000e+00 
3.166170382127e+01 1.000000000000e+00 
3.184743792559e+01 1.000000000000e+00 
3.203131468986e+01 1.000000000000e+00 
3.221335268768e+01 1.000000000000e+00 
3.239357030641e+01 1.000000000000e+00 
3.257198574766e+01 1.000000000000e+00 
3.274861703431e+01 1.000000000000e+00 
3.292348200723e+01 1.000000000000e+00 
3.309659832956e+01 1.000000000000e+00 
3.326798348904e+01 1.000000000000e+00 
3.343765479937e+01 1.000000000000e+00 
3.360562939632e+01 1.000000000000e+00 
3.377192424487e+01 1.000000000000e+00 
3.393655614579e+01 1.000000000000e+00 
3.409954172902e+01 1.000000000000e+00 
3.426089745701e+01 1.000000000000e+00 
3.442063962808e+01 1.000000000000e+00 
3.457878437631e+01 1.000000000000e+00 
3.473534767486e+01 1.000000000000e+00 
3.489034534246e+01 1.000000000000e+00 
3.504379303310e+01 1.000000000000e+00 
3.519570624634e+01 1.000000000000e+00 
3.534610032966e+01 1.000000000000e+00 
3.549499047221e+01 1.000000000000e+00 
3.564239171422e+01 1.000000000000e+00 
3.578831894341e+01 1.000000000000e+00 
3.593278689801e+01 1.000000000000e+00 
3.607581017308e+01 1.000000000000e+00 
3.621740321667e+01 1.000000000000e+00 
3.635758032943e+01 1.000000000000e+00 
3.649635567091e+01 1.000000000000e+00 
3.663374325892e+01 1.000000000000e+00 
3.676975696914e+01 1.000000000000e+00 
3.690441054120e+01 1.000000000000e+00 
3.703771757811e+01 1.000000000000e+00 
3.716969154561e+01 1.000000000000e+00 
3.730034577491e+01 1.000000000000e+00 
3.742969346205e+01 1.000000000000e+00 
3.755774767053e+01 1.000000000000e+00 
3.768452133736e+01 1.000000000000e+00 
3.781002726882e+01 1.000000000000e+00 
3.793427813982e+01 1.000000000000e+00 
3.805728650313e+01 1.000000000000e+00 
3.817906478515e+01 1.000000000000e+00 
3.829962528172e+01 1.000000000000e+00 
3.841898017080e+01 1.000000000000e+00 
3.853714151137e+01 1.000000000000e+00 
3.865412123927e+01 1.000000000000e+00 
3.876993116952e+01 1.000000000000e+00 
3.888458300218e+01 1.000000000000e+00 
3.899808831784e+01 1.000000000000e+00 
3.911045858010e+01 1.000000000000e+00 
3.922170514117e+01 1.000000000000e+00 
3.933183923406e+01 1.000000000000e+00 
3.944087198509e+01 1.000000000000e+00 
3.954881440913e+01 1.000000000000e+00 
3.965567740871e+01 1.000000000000e+00 
3.976147177944e+01 1.000000000000e+00 
3.986620820551e+01 1.000000000000e+00 
3.996989726862e+01 1.000000000000e+00 
4.007254944325e+01 1.000000000000e+00 
4.017417509557e+01 1.000000000000e+00 
4.027478448882e+01 1.000000000000e+00 
4.037438778880e+01 1.000000000000e+00 
4.047299505568e+01 1.000000000000e+00 
4.057061624961e+01 1.000000000000e+00 
4.066726123252e+01 1.000000000000e+00 
4.076293976355e+01 1.000000000000e+00 
4.085766151103e+01 1.000000000000e+00 
4.095143604094e+01 1.000000000000e+00 
4.104427282570e+01 1.000000000000e+00 
4.113618124255e+01 1.000000000000e+00 
4.122717057225e+01 1.000000000000e+00 
4.131725001094e+01 1.000000000000e+00 
4.140642865511e+01 1.000000000000e+00 
4.149471551037e+01 1.000000000000e+00 
4.158211949983e+01 1.000000000000e+00 
4.166864944907e+01 1.000000000000e+00 
4.175431409817e+01 1.000000000000e+00 
4.183912210329e+01 1.000000000000e+00 
4.192308202844e+01 1.000000000000e+00 
4.200620235391e+01 1.000000000000e+00 
4.208849147464e+01 1.000000000000e+00 
4.216995770525e+01 1.000000000000e+00 
4.225060927494e+01 1.000000000000e+00 
4.233045432588e+01 1.000000000000e+00 
4.240950092496e+01 1.000000000000e+00 
4.248775705857e+01 1.000000000000e+00 
4.256523063092e+01 1.000000000000e+00 
4.264192946901e+01 1.000000000000e+00 
4.271786132079e+01 1.000000000000e+00 
4.279303385342e+01 1.000000000000e+00 
4.286745465820e+01 1.000000000000e+00 
4.294113125542e+01 1.000000000000e+00 
4.301407108912e+01 1.000000000000e+00 
4.308628152526e+01 1.000000000000e+00 
4.315776985661e+01 1.000000000000e+00 
4.322854330419e+01 1.000000000000e+00 
4.329860901535e+01 1.000000000000e+00 
4.336797406865e+01 1.000000000000e+00 
4.343664547178e+01 1.000000000000e+00 
4.350463015975e+01 1.000000000000e+00 
4.357193500295e+01 1.000000000000e+00 
4.363856679839e+01 1.000000000000e+00 
4.370453227461e+01 1.000000000000e+00 
4.376983809623e+01 1.000000000000e+00 
4.383449085865e+01 1.000000000000e+00 
4.389849709276e+01 1.000000000000e+00 
4.396186326620e+01 1.000000000000e+00 
4.402459577792e+01 1.000000000000e+00 
4.408670096296e+01 1.000000000000e+00 
4.414818509696e+01 1.000000000000e+00 
4.420905439077e+01 1.000000000000e+00 
4.426931499167e+01 1.000000000000e+00 
4.432897298464e+01 1.000000000000e+00 
4.438803439697e+01 1.000000000000e+00 
4.444650519603e+01 1.000000000000e+00 
4.450439128717e+01 1.000000000000e+00 
4.456169851830e+01 1.000000000000e+00 
4.461843267761e+01 1.000000000000e+00 
4.467459949486e+01 1.000000000000e+00 
4.473020464583e+01 1.000000000000e+00 
4.478525374670e+01 1.000000000000e+00 
4.483975235530e+01 1.000000000000e+00 
4.489370597550e+01 1.000000000000e+00 
4.494712005841e+01 1.000000000000e+00 
4.500000000000e+01 1.000000000000e+00 
 TITLE = "Profiles along polylines"
 VARIABLES = "DIST" "SATURATION1" 
 ZONE T="TIME=1.797693134862e+308"
0.000000000000e+00 1.000000000000e+00 
5.023511443667e-01 1.000000000000e+00 
9.996787804678e-01 1.000000000000e+00 
1.492033141008e+00 1.000000000000e+00 
1.979463956085e+00 1.000000000000e+00 
2.462020463241e+00 1.000000000000e+00 
2.939751407203e+00 1.000000000000e+00 
3.412705039729e+00 1.000000000000e+00 
3.880929132699e+00 1.000000000000e+00 
4.344470984477e+00 1.000000000000e+00 
4.803377419061e+00 1.000000000000e+00 
5.257694789126e+00 1.000000000000e+00 
5.707468985260e+00 1.000000000000e+00 
6.152745441858e+00 1.000000000000e+00 
6.593569132803e+00 1.000000000000e+00 
7.029984584063e+00 1.000000000000e+00 
7.462035882509e+00 1.000000000000e+00 
7.889766668024e+00 1.000000000000e+00 
8.313220145764e+00 1.000000000000e+00 
8.732439091408e+00 1.000000000000e+00 
9.147465846375e+00 1.000000000000e+00 
9.558342333195e+00 1.000000000000e+00 
9.965110057073e+00 1.000000000000e+00 
1.036781010429e+01 1.000000000000e+00 
1.076648315045e+01 1.000000000000e+00 
1.116116946540e+01 1.000000000000e+00 
1.155190891787e+01 1.000000000000e+00 
1.193874097353e+01 1.000000000000e+00 
1.232170470634e+01 1.000000000000e+00 
1.270083880294e+01 1.000000000000e+00 
1.307618156046e+01 1.000000000000e+00 
1.344777089085e+01 1.000000000000e+00 
1.381564432860e+01 1.000000000000e+00 
1.417983903150e+01 1.000000000000e+00 
1.454039178488e+01 1.000000000000e+00 
1.489733901232e+01 1.000000000000e+00 
1.525071676951e+01 1.000000000000e+00 
1.560056074825e+01 1.000000000000e+00 
1.594690628703e+01 1.000000000000e+00 
1.628978837134e+01 1.000000000000e+00 
1.662924163406e+01 1.000000000000e+00 
1.696530036249e+01 1.000000000000e+00 
1.729799850523e+01 1.000000000000e+00 
1.762736966548e+01 1.000000000000e+00 
1.795344711143e+01 1.000000000000e+00 
1.827626378268e+01 1.000000000000e+00 
1.859585228716e+01 1.000000000000e+00 
1.891224490721e+01 1.000000000000e+00 
1.922547360320e+01 1.000000000000e+00 
1.953557001297e+01 1.000000000000e+00 
1.984256545841e+01 1.000000000000e+00 
2.014649094826e+01 1.000000000000e+00 
2.044737718114e+01 1.000000000000e+00 
2.074525455164e+01 1.000000000000e+00 
2.104015314978e+01 1.000000000000e+00 
2.133210276364e+01 1.000000000000e+00 
2.162113288213e+01 1.000000000000e+00 
2.190727269749e+01 1.000000000000e+00 
2.219055111465e+01 9.730863364150e-01 
2.247099675018e+01 9.110650780570e-01 
2.274863792808e+01 8.556736104292e-01 
2.302350269226e+01 8.089005906352e-01 
2.329561880873e+01 7.696991851444e-01 
2.356501376456e+01 7.365957929246e-01 
2.383171476996e+01 7.083222387305e-01 
2.409574876737e+01 6.838894626990e-01 
2.435714242639e+01 6.625438778487e-01 
2.461592214625e+01 6.437111385664e-01 
2.487211406765e+01 6.269496098083e-01 
2.512574407129e+01 6.119156407690e-01 
2.537683777640e+01 5.983384247087e-01 
2.562542054256e+01 5.860018940604e-01 
2.587151748159e+01 5.747316156478e-01 
2.611515345238e+01 5.643852155940e-01 
2.635635306271e+01 5.548453026797e-01 
2.659514067751e+01 5.460141757979e-01 
2.683154041702e+01 5.378098193331e-01 
2.706557615834e+01 5.301628379436e-01 
2.729727154026e+01 5.230140847944e-01 
2.752664996800e+01 5.163128075612e-01 
2.775373461120e+01 5.100151853260e-01 
2.797854840863e+01 5.040831631398e-01 
2.820111406940e+01 4.984835160430e-01 
2.842145407423e+01 4.931870913037e-01 
2.863959067996e+01 4.881681902931e-01 
2.885554591724e+01 4.834040609505e-01 
2.906934160231e+01 4.788744778919e-01 
2.928099933335e+01 4.745613934549e-01 
2.949054048608e+01 4.704486457488e-01 
2.969798622754e+01 4.665217127117e-01 
2.990335751034e+01 4.627675045119e-01 
3.010667508036e+01 4.591741869080e-01 
3.030795947741e+01 4.557310305932e-01 
3.050723102941e+01 4.524282821336e-01 
3.070450986321e+01 4.492570525931e-01 
3.089981590866e+01 4.462092213847e-01 
3.109316889580e+01 4.432773529657e-01 
3.128458835220e+01 4.404546243080e-01 
3.147409361367e+01 4.377347613511e-01 
3.166170382127e+01 4.351119835063e-01 
3.184743792559e+01 4.325809547724e-01 
3.203131468986e+01 4.301367406555e-01 
3.221335268768e+01 4.277747701501e-01 
3.239357030641e+01 4.254908019627e-01 
3.257198574766e+01 4.232808945300e-01 
3.274861703431e+01 4.211413792256e-01 
3.292348200723e+01 4.190688365541e-01 
3.309659832956e+01 4.170600747542e-01 
3.326798348904e+01 4.151121106250e-01 
3.343765479937e+01 4.132221523019e-01 
3.360562939632e+01 4.113875837967e-01 
3.377192424487e+01 4.096059509263e-01 
3.393655614579e+01 4.078749485957e-01 
3.409954172902e+01 4.061924094136e-01 
3.426089745701e+01 4.045562932594e-01 
3.442063962808e+01 4.029646778003e-01 
3.457878437631e+01 4.014157498901e-01 
3.473534767486e+01 3.999077976931e-01 
3.489034534246e+01 3.984392034608e-01 
3.504379303310e+01 3.970084370808e-01 
3.519570624634e+01 3.956140499788e-01 
3.534610032966e+01 3.942546695967e-01 
3.549499047221e+01 3.929289943982e-01 
3.564239171422e+01 3.916357891365e-01 
3.578831894341e+01 3.903738806109e-01 
3.593278689801e+01 3.891421536965e-01 
3.607581017308e+01 3.879395476525e-01 
3.621740321667e+01 3.867650527946e-01 
3.635758032943e+01 3.856177073875e-01 
3.649635567091e+01 3.844965947136e-01 
3.663374325892e+01 3.834008404096e-01 
3.676975696914e+01 3.823296099932e-01 
3.690441054120e+01 3.812821065144e-01 
3.703771757811e+01 3.802575684228e-01 
3.716969154561e+01 3.792552675825e-01 
3.730034577491e+01 3.782745073967e-01 
3.742969346205e+01 3.773146210853e-01 
3.755774767053e+01 3.763749700509e-01 
3.768452133736e+01 3.754549423298e-01 
3.781002726882e+01 3.745539512159e-01 
3.793427813982e+01 3.736714339480e-01 
3.805728650313e+01 3.728068504112e-01 
3.817906478515e+01 3.719596820132e-01 
3.829962528172e+01 3.711294306295e-01 
3.841898017080e+01 3.703156174995e-01 
3.853714151137e+01 3.695177822819e-01 
3.865412123927e+01 3.687354821865e-01 
3.876993116952e+01 3.679682911156e-01 
3.888458300218e+01 3.672157988325e-01 
3.899808831784e+01 3.664776102447e-01 
3.911045858010e+01 3.657533446845e-01 
3.922170514117e+01 3.650426352095e-01 
3.933183923406e+01 3.643451280279e-01 
3.944087198509e+01 3.636604818284e-01 
3.954881440913e+01 3.629883672539e-01 
3.965567740871e+01 3.623284663802e-01 
3.976147177944e+01 3.616804721844e-01 
3.986620820551e+01 3.610440881020e-01 
3.996989726862e+01 3.604190275264e-01 
4.007254944325e+01 3.598050134158e-01 
4.017417509557e+01 3.592017779000e-01 
4.027478448882e+01 3.586090618683e-01 
4.037438778880e+01 3.580266145785e-01 
4.047299505568e+01 3.574541933642e-01 
4.057061624961e+01 3.568915632778e-01 
4.066726123252e+01 3.563384967729e-01 
4.076293976355e+01 3.557947734382e-01 
4.085766151103e+01 3.552601796514e-01 
4.095143604094e+01 3.547345083811e-01 
4.104427282570e+01 3.542175588851e-01 
4.113618124255e+01 3.537091364809e-01 
4.122717057225e+01 3.532090523249e-01 
4.131725001094e+01 3.527171231299e-01 
4.140642865511e+01 3.522331710416e-01 
4.149471551037e+01 3.517570233927e-01 
4.158211949983e+01 3.512885124701e-01 
4.166864944907e+01 3.508274754166e-01 
4.175431409817e+01 3.503737539947e-01 
4.183912210329e+01 3.499271944155e-01 
4.192308202844e+01 3.494876472257e-01 
4.200620235391e+01 3.490549671141e-01 
4.208849147464e+01 3.486290127777e-01 
4.216995770525e+01 3.482096467591e-01 
4.225060927494e+01 3.477967353431e-01 
4.233045432588e+01 3.473901484394e-01 
4.240950092496e+01 3.469897594035e-01 
4.248775705857e+01 3.465954449492e-01 
4.256523063092e+01 3.462070850478e-01 
4.264192946901e+01 3.458245627979e-01 
4.271786132079e+01 3.454477643345e-01 
4.279303385342e+01 3.450765787410e-01 
4.286745465820e+01 3.447108979322e-01 
4.294113125542e+01 3.443506165425e-01 
4.301407108912e+01 3.439956318665e-01 
4.308628152526e+01 3.436458437864e-01 
4.315776985661e+01 3.433011546698e-01 
4.322854330419e+01 3.429614692877e-01 
4.329860901535e+01 3.426266947514e-01 
4.336797406865e+01 3.422967404203e-01 
4.343664547178e+01 3.419715178448e-01 
4.350463015975e+01 3.416509407112e-01 
4.357193500295e+01 3.413349247420e-01 
4.363856679839e+01 3.410233876779e-01 
4.370453227461e+01 3.407162491977e-01 
4.376983809623e+01 3.404134308426e-01 
4.383449085865e+01 3.401148559877e-01 
4.389849709276e+01 3.398204497701e-01 
4.396186326620e+01 3.395301390339e-01 
4.402459577792e+01 3.392438523082e-01 
4.408670096296e+01 3.389615197401e-01 
4.414818509696e+01 3.386830730300e-01 
4.420905439077e+01 3.384084454151e-01 
4.426931499167e+01 3.381375716224e-01 
4.432897298464e+01 3.378703878241e-01 
4.438803439697e+01 3.376068315795e-01 
4.444650519603e+01 3.373468418086e-01 
4.450439128717e+01 3.370903587664e-01 
4.456169851830e+01 3.368373239890e-01 
4.461843267761e+01 3.365876802708e-01 
4.467459949486e+01 3.363413716273e-01 
4.473020464583e+01 3.360983432455e-01 
4.478525374670e+01 3.358585414790e-01 
4.483975235530e+01 3.356219138142e-01 
4.489370597550e+01 3.353884088236e-01 
4.494712005841e+01 3.351579761346e-01 
4.500000000000e+01 3.349305659977e-01 
