 TITLE = "Profiles along polylines"
 VARIABLES = "DIST" "SATURATION1" 
 ZONE T="TIME=0.000000000000e+00"
0.000000000000e+00 1.000000000000e+00 
5.023511443667e-01 1.000000000000e+00 
9.996787804678e-01 1.000000000000e+00 
1.492033141008e+00 1.000000000000e+00 
1.979463956085e+00 1.000000000000e+00 
2.462020463241e+00 1.000000000000e+00 
2.939751407203e+00 1.000000000000e+00 
3.412705039729e+00 1.000000000000e+00 
3.880929132699e+00 1.000000000000e+00 
4.344470984477e+00 1.000000000000e+00 
4.803377419061e+00 1.000000000000e+00 
5.257694789126e+00 1.000000000000e+00 
5.707468985260e+00 1.000000000000e+00 
6.152745441858e+00 1.000000000000e+00 
6.593569132803e+00 1.000000000000e+00 
7.029984584063e+00 1.000000000000e+00 
7.462035882509e+00 1.000000000000e+00 
7.889766668024e+00 1.000000000000e+00 
8.313220145764e+00 1.000000000000e+00 
8.732439091408e+00 1.000000000000e+00 
9.147465846375e+00 1.000000000000e+00 
9.558342333195e+00 1.000000000000e+00 
9.965110057073e+00 1.000000000000e+00 
1.036781010429e+01 1.000000000000e+00 
1.076648315045e+01 1.000000000000e+00 
1.116116946540e+01 1.000000000000e+00 
1.155190891787e+01 1.000000000000e+00 
1.193874097353e+01 1.000000000000e+00 
1.232170470634e+01 1.000000000000e+00 
1.270083880294e+01 1.000000000000e+00 
1.307618156046e+01 1.000000000000e+00 
1.344777089085e+01 1.000000000000e+00 
1.381564432860e+01 1.000000000000e+00 
1.417983903150e+01 1.000000000000e+00 
1.454039178488e+01 1.000000000000e+00 
1.489733901232e+01 1.000000000000e+00 
1.525071676951e+01 1.000000000000e+00 
1.560056074825e+01 1.000000000000e+00 
1.594690628703e+01 1.000000000000e+00 
1.628978837134e+01 1.000000000000e+00 
1.662924163406e+01 1.000000000000e+00 
1.696530036249e+01 1.000000000000e+00 
1.729799850523e+01 1.000000000000e+00 
1.762736966548e+01 1.000000000000e+00 
1.795344711143e+01 1.000000000000e+00 
1.827626378268e+01 1.000000000000e+00 
1.859585228716e+01 1.000000000000e+00 
1.891224490721e+01 1.000000000000e+00 
1.922547360320e+01 1.000000000000e+00 
1.953557001297e+01 1.000000000000e+00 
1.984256545841e+01 1.000000000000e+00 
2.014649094826e+01 1.000000000000e+00 
2.044737718114e+01 1.000000000000e+00 
2.074525455164e+01 1.000000000000e+00 
2.104015314978e+01 1.000000000000e+00 
2.133210276364e+01 1.000000000000e+00 
2.162113288213e+01 1.000000000000e+00 
2.190727269749e+01 1.000000000000e+00 
2.219055111465e+01 1.000000000000e+00 
2.247099675018e+01 1.000000000000e+00 
2.274863792808e+01 1.000000000000e+00 
2.302350269226e+01 1.000000000000e+00 
2.329561880873e+01 1.000000000000e+00 
2.356501376456e+01 1.000000000000e+00 
2.383171476996e+01 1.000000000000e+00 
2.409574876737e+01 1.000000000000e+00 
2.435714242639e+01 1.000000000000e+00 
2.461592214625e+01 1.000000000000e+00 
2.487211406765e+01 1.000000000000e+00 
2.512574407129e+01 1.000000000000e+00 
2.537683777640e+01 1.000000000000e+00 
2.562542054256e+01 1.000000000000e+00 
2.587151748159e+01 1.000000000000e+00 
2.611515345238e+01 1.000000000000e+00 
2.635635306271e+01 1.000000000000e+00 
2.659514067751e+01 1.000000000000e+00 
2.683154041702e+01 1.000000000000e+00 
2.706557615834e+01 1.000000000000e+00 
2.729727154026e+01 1.000000000000e+00 
2.752664996800e+01 1.000000000000e+00 
2.775373461120e+01 1.000000000000e+00 
2.797854840863e+01 1.000000000000e+00 
2.820111406940e+01 1.000000000000e+00 
2.842145407423e+01 1.000000000000e+00 
2.863959067996e+01 1.000000000000e+00 
2.885554591724e+01 1.000000000000e+00 
2.906934160231e+01 1.000000000000e+00 
2.928099933335e+01 1.000000000000e+00 
2.949054048608e+01 1.000000000000e+00 
2.969798622754e+01 1.000000000000e+00 
2.990335751034e+01 1.000000000000e+00 
3.010667508036e+01 1.000000000000e+00 
3.030795947741e+01 1.000000000000e+00 
3.050723102941e+01 1.000000000000e+00 
3.070450986321e+01 1.000000000000e+00 
3.089981590866e+01 1.000000000000e+00 
3.109316889580e+01 1.000000000000e+00 
3.128458835220e+01 1.000000000000e+00 
3.147409361367e+01 1.000000000000e+00 
3.166170382127e+01 1.000000000000e+00 
3.184743792559e+01 1.000000000000e+00 
3.203131468986e+01 1.000000000000e+00 
3.221335268768e+01 1.000000000000e+00 
3.239357030641e+01 1.000000000000e+00 
3.257198574766e+01 1.000000000000e+00 
3.274861703431e+01 1.000000000000e+00 
3.292348200723e+01 1.000000000000e+00 
3.309659832956e+01 1.000000000000e+00 
3.326798348904e+01 1.000000000000e+00 
3.343765479937e+01 1.000000000000e+00 
3.360562939632e+01 1.000000000000e+00 
3.377192424487e+01 1.000000000000e+00 
3.393655614579e+01 1.000000000000e+00 
3.409954172902e+01 1.000000000000e+00 
3.426089745701e+01 1.000000000000e+00 
3.442063962808e+01 1.000000000000e+00 
3.457878437631e+01 1.000000000000e+00 
3.473534767486e+01 1.000000000000e+00 
3.489034534246e+01 1.000000000000e+00 
3.504379303310e+01 1.000000000000e+00 
3.519570624634e+01 1.000000000000e+00 
3.534610032966e+01 1.000000000000e+00 
3.549499047221e+01 1.000000000000e+00 
3.564239171422e+01 1.000000000000e+00 
3.578831894341e+01 1.000000000000e+00 
3.593278689801e+01 1.000000000000e+00 
3.607581017308e+01 1.000000000000e+00 
3.621740321667e+01 1.000000000000e+00 
3.635758032943e+01 1.000000000000e+00 
3.649635567091e+01 1.000000000000e+00 
3.663374325892e+01 1.000000000000e+00 
3.676975696914e+01 1.000000000000e+00 
3.690441054120e+01 1.000000000000e+00 
3.703771757811e+01 1.000000000000e+00 
3.716969154561e+01 1.000000000000e+00 
3.730034577491e+01 1.000000000000e+00 
3.742969346205e+01 1.000000000000e+00 
3.755774767053e+01 1.000000000000e+00 
3.768452133736e+01 1.000000000000e+00 
3.781002726882e+01 1.000000000000e+00 
3.793427813982e+01 1.000000000000e+00 
3.805728650313e+01 1.000000000000e+00 
3.817906478515e+01 1.000000000000e+00 
3.829962528172e+01 1.000000000000e+00 
3.841898017080e+01 1.000000000000e+00 
3.853714151137e+01 1.000000000000e+00 
3.865412123927e+01 1.000000000000e+00 
3.876993116952e+01 1.000000000000e+00 
3.888458300218e+01 1.000000000000e+00 
3.899808831784e+01 1.000000000000e+00 
3.911045858010e+01 1.000000000000e+00 
3.922170514117e+01 1.000000000000e+00 
3.933183923406e+01 1.000000000000e+00 
3.944087198509e+01 1.000000000000e+00 
3.954881440913e+01 1.000000000000e+00 
3.965567740871e+01 1.000000000000e+00 
3.976147177944e+01 1.000000000000e+00 
3.986620820551e+01 1.000000000000e+00 
3.996989726862e+01 1.000000000000e+00 
4.007254944325e+01 1.000000000000e+00 
4.017417509557e+01 1.000000000000e+00 
4.027478448882e+01 1.000000000000e+00 
4.037438778880e+01 1.000000000000e+00 
4.047299505568e+01 1.000000000000e+00 
4.057061624961e+01 1.000000000000e+00 
4.066726123252e+01 1.000000000000e+00 
4.076293976355e+01 1.000000000000e+00 
4.085766151103e+01 1.000000000000e+00 
4.095143604094e+01 1.000000000000e+00 
4.104427282570e+01 1.000000000000e+00 
4.113618124255e+01 1.000000000000e+00 
4.122717057225e+01 1.000000000000e+00 
4.131725001094e+01 1.000000000000e+00 
4.140642865511e+01 1.000000000000e+00 
4.149471551037e+01 1.000000000000e+00 
4.158211949983e+01 1.000000000000e+00 
4.166864944907e+01 1.000000000000e+00 
4.175431409817e+01 1.000000000000e+00 
4.183912210329e+01 1.000000000000e+00 
4.192308202844e+01 1.000000000000e+00 
4.200620235391e+01 1.000000000000e+00 
4.208849147464e+01 1.000000000000e+00 
4.216995770525e+01 1.000000000000e+00 
4.225060927494e+01 1.000000000000e+00 
4.233045432588e+01 1.000000000000e+00 
4.240950092496e+01 1.000000000000e+00 
4.248775705857e+01 1.000000000000e+00 
4.256523063092e+01 1.000000000000e+00 
4.264192946901e+01 1.000000000000e+00 
4.271786132079e+01 1.000000000000e+00 
4.279303385342e+01 1.000000000000e+00 
4.286745465820e+01 1.000000000000e+00 
4.294113125542e+01 1.000000000000e+00 
4.301407108912e+01 1.000000000000e+00 
4.308628152526e+01 1.000000000000e+00 
4.315776985661e+01 1.000000000000e+00 
4.322854330419e+01 1.000000000000e+00 
4.329860901535e+01 1.000000000000e+00 
4.336797406865e+01 1.000000000000e+00 
4.343664547178e+01 1.000000000000e+00 
4.350463015975e+01 1.000000000000e+00 
4.357193500295e+01 1.000000000000e+00 
4.363856679839e+01 1.000000000000e+00 
4.370453227461e+01 1.000000000000e+00 
4.376983809623e+01 1.000000000000e+00 
4.383449085865e+01 1.000000000000e+00 
4.389849709276e+01 1.000000000000e+00 
4.396186326620e+01 1.000000000000e+00 
4.402459577792e+01 1.000000000000e+00 
4.408670096296e+01 1.000000000000e+00 
4.414818509696e+01 1.000000000000e+00 
4.420905439077e+01 1.000000000000e+00 
4.426931499167e+01 1.000000000000e+00 
4.432897298464e+01 1.000000000000e+00 
4.438803439697e+01 1.000000000000e+00 
4.444650519603e+01 1.000000000000e+00 
4.450439128717e+01 1.000000000000e+00 
4.456169851830e+01 1.000000000000e+00 
4.461843267761e+01 1.000000000000e+00 
4.467459949486e+01 1.000000000000e+00 
4.473020464583e+01 1.000000000000e+00 
4.478525374670e+01 1.000000000000e+00 
4.483975235530e+01 1.000000000000e+00 
4.489370597550e+01 1.000000000000e+00 
4.494712005841e+01 1.000000000000e+00 
4.500000000000e+01 1.000000000000e+00 
 TITLE = "Profiles along polylines"
 VARIABLES = "DIST" "SATURATION1" 
 ZONE T="TIME=1.797693134862e+308"
0.000000000000e+00 1.000000000000e+00 
5.023511443667e-01 1.000000000000e+00 
9.996787804678e-01 1.000000000000e+00 
1.492033141008e+00 1.000000000000e+00 
1.979463956085e+00 1.000000000000e+00 
2.462020463241e+00 1.000000000000e+00 
2.939751407203e+00 1.000000000000e+00 
3.412705039729e+00 1.000000000000e+00 
3.880929132699e+00 1.000000000000e+00 
4.344470984477e+00 1.000000000000e+00 
4.803377419061e+00 1.000000000000e+00 
5.257694789126e+00 1.000000000000e+00 
5.707468985260e+00 1.000000000000e+00 
6.152745441858e+00 1.000000000000e+00 
6.593569132803e+00 1.000000000000e+00 
7.029984584063e+00 1.000000000000e+00 
7.462035882509e+00 1.000000000000e+00 
7.889766668024e+00 1.000000000000e+00 
8.313220145764e+00 1.000000000000e+00 
8.732439091408e+00 1.000000000000e+00 
9.147465846375e+00 1.000000000000e+00 
9.558342333195e+00 1.000000000000e+00 
9.965110057073e+00 1.000000000000e+00 
1.036781010429e+01 1.000000000000e+00 
1.076648315045e+01 1.000000000000e+00 
1.116116946540e+01 1.000000000000e+00 
1.155190891787e+01 1.000000000000e+00 
1.193874097353e+01 1.000000000000e+00 
1.232170470634e+01 1.000000000000e+00 
1.270083880294e+01 1.000000000000e+00 
1.307618156046e+01 1.000000000000e+00 
1.344777089085e+01 1.000000000000e+00 
1.381564432860e+01 1.000000000000e+00 
1.417983903150e+01 1.000000000000e+00 
1.454039178488e+01 1.000000000000e+00 
1.489733901232e+01 1.000000000000e+00 
1.525071676951e+01 1.000000000000e+00 
1.560056074825e+01 1.000000000000e+00 
1.594690628703e+01 1.000000000000e+00 
1.628978837134e+01 1.000000000000e+00 
1.662924163406e+01 1.000000000000e+00 
1.696530036249e+01 1.000000000000e+00 
1.729799850523e+01 1.000000000000e+00 
1.762736966548e+01 1.000000000000e+00 
1.795344711143e+01 1.000000000000e+00 
1.827626378268e+01 1.000000000000e+00 
1.859585228716e+01 1.000000000000e+00 
1.891224490721e+01 1.000000000000e+00 
1.922547360320e+01 1.000000000000e+00 
1.953557001297e+01 1.000000000000e+00 
1.984256545841e+01 1.000000000000e+00 
2.014649094826e+01 1.000000000000e+00 
2.044737718114e+01 1.000000000000e+00 
2.074525455164e+01 1.000000000000e+00 
2.104015314978e+01 1.000000000000e+00 
2.133210276364e+01 1.000000000000e+00 
2.162113288213e+01 1.000000000000e+00 
2.190727269749e+01 1.000000000000e+00 
2.219055111465e+01 1.000000000000e+00 
2.247099675018e+01 9.503397361655e-01 
2.274863792808e+01 8.905035024415e-01 
2.302350269226e+01 8.384946959654e-01 
2.329561880873e+01 7.947802813570e-01 
2.356501376456e+01 7.580398114420e-01 
2.383171476996e+01 7.268696637642e-01 
2.409574876737e+01 7.001179964998e-01 
2.435714242639e+01 6.768958553337e-01 
2.461592214625e+01 6.565257523230e-01 
2.487211406765e+01 6.384893074296e-01 
2.512574407129e+01 6.223858670353e-01 
2.537683777640e+01 6.079019890256e-01 
2.562542054256e+01 5.947893798484e-01 
2.587151748159e+01 5.828489604250e-01 
2.611515345238e+01 5.719192820678e-01 
2.635635306271e+01 5.618680184363e-01 
2.659514067751e+01 5.525856449301e-01 
2.683154041702e+01 5.439806882240e-01 
2.706557615834e+01 5.359761139845e-01 
2.729727154026e+01 5.285065493627e-01 
2.752664996800e+01 5.215161247829e-01 
2.775373461120e+01 5.149567803369e-01 
2.797854840863e+01 5.087869239202e-01 
2.820111406940e+01 5.029703589293e-01 
2.842145407423e+01 4.974754202042e-01 
2.863959067996e+01 4.922742723090e-01 
2.885554591724e+01 4.873423357316e-01 
2.906934160231e+01 4.826578140470e-01 
2.928099933335e+01 4.782013023768e-01 
2.949054048608e+01 4.739554609434e-01 
2.969798622754e+01 4.699047409934e-01 
2.990335751034e+01 4.660351541378e-01 
3.010667508036e+01 4.623340766815e-01 
3.030795947741e+01 4.587900831882e-01 
3.050723102941e+01 4.553928042678e-01 
3.070450986321e+01 4.521328041768e-01 
3.089981590866e+01 4.490014753957e-01 
3.109316889580e+01 4.459909474860e-01 
3.128458835220e+01 4.430940079085e-01 
3.147409361367e+01 4.403040328010e-01 
3.166170382127e+01 4.376149266320e-01 
3.184743792559e+01 4.350210691500e-01 
3.203131468986e+01 4.325172687124e-01 
3.221335268768e+01 4.300987211652e-01 
3.239357030641e+01 4.277609733742e-01 
3.257198574766e+01 4.254998909021e-01 
3.274861703431e+01 4.233116291705e-01 
3.292348200723e+01 4.211926078687e-01 
3.309659832956e+01 4.191394879872e-01 
3.326798348904e+01 4.171491512651e-01 
3.343765479937e+01 4.152186817494e-01 
3.360562939632e+01 4.133453492615e-01 
3.377192424487e+01 4.115265943722e-01 
3.393655614579e+01 4.097600148373e-01 
3.409954172902e+01 4.080433534631e-01 
3.426089745701e+01 4.063744870014e-01 
3.442063962808e+01 4.047514160665e-01 
3.457878437631e+01 4.031722559979e-01 
3.473534767486e+01 4.016352285019e-01 
3.489034534246e+01 4.001386539948e-01 
3.504379303310e+01 3.986809447649e-01 
3.519570624634e+01 3.972605985213e-01 
3.534610032966e+01 3.958761925549e-01 
3.549499047221e+01 3.945263784584e-01 
3.564239171422e+01 3.932098771329e-01 
3.578831894341e+01 3.919254743093e-01 
3.593278689801e+01 3.906720163633e-01 
3.607581017308e+01 3.894484064284e-01 
3.621740321667e+01 3.882536008912e-01 
3.635758032943e+01 3.870866061219e-01 
3.649635567091e+01 3.859464753945e-01 
3.663374325892e+01 3.848323060877e-01 
3.676975696914e+01 3.837432370882e-01 
3.690441054120e+01 3.826784463276e-01 
3.703771757811e+01 3.816371485452e-01 
3.716969154561e+01 3.806185932069e-01 
3.730034577491e+01 3.796220625425e-01 
3.742969346205e+01 3.786468697404e-01 
3.755774767053e+01 3.776923572400e-01 
3.768452133736e+01 3.767578951120e-01 
3.781002726882e+01 3.758428796190e-01 
3.793427813982e+01 3.749467318445e-01 
3.805728650313e+01 3.740688963377e-01 
3.817906478515e+01 3.732088399404e-01 
3.829962528172e+01 3.723660506855e-01 
3.841898017080e+01 3.715400366480e-01 
3.853714151137e+01 3.707303249603e-01 
3.865412123927e+01 3.699364609067e-01 
3.876993116952e+01 3.691580070297e-01 
3.888458300218e+01 3.683945422651e-01 
3.899808831784e+01 3.676456611957e-01 
3.911045858010e+01 3.669109733026e-01 
3.922170514117e+01 3.661901022397e-01 
3.933183923406e+01 3.654826852342e-01 
3.944087198509e+01 3.647883723929e-01 
3.954881440913e+01 3.641068261541e-01 
3.965567740871e+01 3.634377207469e-01 
3.976147177944e+01 3.627807416398e-01 
3.986620820551e+01 3.621355850804e-01 
3.996989726862e+01 3.615019575778e-01 
4.007254944325e+01 3.608795754940e-01 
4.017417509557e+01 3.602681646364e-01 
4.027478448882e+01 3.596674598313e-01 
4.037438778880e+01 3.590772045195e-01 
4.047299505568e+01 3.584971504523e-01 
4.057061624961e+01 3.579270573224e-01 
4.066726123252e+01 3.573666924354e-01 
4.076293976355e+01 3.568158304341e-01 
4.085766151103e+01 3.562742529414e-01 
4.095143604094e+01 3.557417483546e-01 
4.104427282570e+01 3.552181115343e-01 
4.113618124255e+01 3.547031435668e-01 
4.122717057225e+01 3.541966515357e-01 
4.131725001094e+01 3.536984482320e-01 
4.140642865511e+01 3.532083520242e-01 
4.149471551037e+01 3.527261866054e-01 
4.158211949983e+01 3.522517807542e-01 
4.166864944907e+01 3.517849682316e-01 
4.175431409817e+01 3.513255875380e-01 
4.183912210329e+01 3.508734817375e-01 
4.192308202844e+01 3.504284983401e-01 
4.200620235391e+01 3.499904891031e-01 
4.208849147464e+01 3.495593098928e-01 
4.216995770525e+01 3.491348205177e-01 
4.225060927494e+01 3.487168846209e-01 
4.233045432588e+01 3.483053695596e-01 
4.240950092496e+01 3.479001462216e-01 
4.248775705857e+01 3.475010889342e-01 
4.256523063092e+01 3.471080753609e-01 
4.264192946901e+01 3.467209863675e-01 
4.271786132079e+01 3.463397059283e-01 
4.279303385342e+01 3.459641210353e-01 
4.286745465820e+01 3.455941215787e-01 
4.294113125542e+01 3.452296002317e-01 
4.301407108912e+01 3.448704523894e-01 
4.308628152526e+01 3.445165760936e-01 
4.315776985661e+01 3.441678719285e-01 
4.322854330419e+01 3.438242429363e-01 
4.329860901535e+01 3.434855945520e-01 
4.336797406865e+01 3.431518345093e-01 
4.343664547178e+01 3.428228727819e-01 
4.350463015975e+01 3.424986215262e-01 
4.357193500295e+01 3.421789949799e-01 
4.363856679839e+01 3.418639094428e-01 
4.370453227461e+01 3.415532831950e-01 
4.376983809623e+01 3.412470364189e-01 
4.383449085865e+01 3.409450911706e-01 
4.389849709276e+01 3.406473713054e-01 
4.396186326620e+01 3.403538024220e-01 
4.402459577792e+01 3.400643118394e-01 
4.408670096296e+01 3.397788285286e-01 
4.414818509696e+01 3.394972830463e-01 
4.420905439077e+01 3.392196075177e-01 
4.426931499167e+01 3.389457355884e-01 
4.432897298464e+01 3.386756023788e-01 
4.438803439697e+01 3.384091444246e-01 
4.444650519603e+01 3.381462996501e-01 
4.450439128717e+01 3.378870073409e-01 
4.456169851830e+01 3.376312080898e-01 
4.461843267761e+01 3.373788437725e-01 
4.467459949486e+01 3.371298575102e-01 
4.473020464583e+01 3.368841936187e-01 
4.478525374670e+01 3.366417976030e-01 
4.483975235530e+01 3.364026161232e-01 
4.489370597550e+01 3.361665969463e-01 
4.494712005841e+01 3.359336889146e-01 
4.500000000000e+01 3.357038415052e-01 
