 TITLE = "Profiles along polylines"
 VARIABLES = "DIST" "SATURATION1" 
 ZONE T="TIME=0.000000000000e+00"
0.000000000000e+00 1.000000000000e+00 
0.000000000000e+00 1.000000000000e+00 
5.023511443667e-01 1.000000000000e+00 
5.023511443667e-01 1.000000000000e+00 
9.996787804678e-01 1.000000000000e+00 
9.996787804678e-01 1.000000000000e+00 
1.492033141008e+00 1.000000000000e+00 
1.492033141008e+00 1.000000000000e+00 
1.979463956085e+00 1.000000000000e+00 
1.979463956085e+00 1.000000000000e+00 
2.462020463241e+00 1.000000000000e+00 
2.462020463241e+00 1.000000000000e+00 
2.939751407203e+00 1.000000000000e+00 
2.939751407203e+00 1.000000000000e+00 
3.412705039729e+00 1.000000000000e+00 
3.412705039729e+00 1.000000000000e+00 
3.880929132699e+00 1.000000000000e+00 
3.880929132699e+00 1.000000000000e+00 
4.344470984477e+00 1.000000000000e+00 
4.344470984477e+00 1.000000000000e+00 
4.803377419061e+00 1.000000000000e+00 
4.803377419061e+00 1.000000000000e+00 
5.257694789126e+00 1.000000000000e+00 
5.257694789126e+00 1.000000000000e+00 
5.707468985260e+00 1.000000000000e+00 
5.707468985260e+00 1.000000000000e+00 
6.152745441858e+00 1.000000000000e+00 
6.152745441858e+00 1.000000000000e+00 
6.593569132803e+00 1.000000000000e+00 
6.593569132803e+00 1.000000000000e+00 
7.029984584063e+00 1.000000000000e+00 
7.029984584063e+00 1.000000000000e+00 
7.462035882509e+00 1.000000000000e+00 
7.462035882509e+00 1.000000000000e+00 
7.889766668024e+00 1.000000000000e+00 
7.889766668024e+00 1.000000000000e+00 
8.313220145764e+00 1.000000000000e+00 
8.313220145764e+00 1.000000000000e+00 
8.732439091408e+00 1.000000000000e+00 
8.732439091408e+00 1.000000000000e+00 
9.147465846375e+00 1.000000000000e+00 
9.147465846375e+00 1.000000000000e+00 
9.558342333195e+00 1.000000000000e+00 
9.558342333195e+00 1.000000000000e+00 
9.965110057073e+00 1.000000000000e+00 
9.965110057073e+00 1.000000000000e+00 
1.036781010429e+01 1.000000000000e+00 
1.036781010429e+01 1.000000000000e+00 
1.076648315045e+01 1.000000000000e+00 
1.076648315045e+01 1.000000000000e+00 
1.116116946540e+01 1.000000000000e+00 
1.116116946540e+01 1.000000000000e+00 
1.155190891787e+01 1.000000000000e+00 
1.155190891787e+01 1.000000000000e+00 
1.193874097353e+01 1.000000000000e+00 
1.193874097353e+01 1.000000000000e+00 
1.232170470634e+01 1.000000000000e+00 
1.232170470634e+01 1.000000000000e+00 
1.270083880294e+01 1.000000000000e+00 
1.270083880294e+01 1.000000000000e+00 
1.307618156046e+01 1.000000000000e+00 
1.307618156046e+01 1.000000000000e+00 
1.344777089085e+01 1.000000000000e+00 
1.344777089085e+01 1.000000000000e+00 
1.381564432860e+01 1.000000000000e+00 
1.381564432860e+01 1.000000000000e+00 
1.417983903150e+01 1.000000000000e+00 
1.417983903150e+01 1.000000000000e+00 
1.454039178488e+01 1.000000000000e+00 
1.454039178488e+01 1.000000000000e+00 
1.489733901232e+01 1.000000000000e+00 
1.489733901232e+01 1.000000000000e+00 
1.525071676951e+01 1.000000000000e+00 
1.525071676951e+01 1.000000000000e+00 
1.560056074825e+01 1.000000000000e+00 
1.560056074825e+01 1.000000000000e+00 
1.594690628703e+01 1.000000000000e+00 
1.594690628703e+01 1.000000000000e+00 
1.628978837134e+01 1.000000000000e+00 
1.628978837134e+01 1.000000000000e+00 
1.662924163406e+01 1.000000000000e+00 
1.662924163406e+01 1.000000000000e+00 
1.696530036249e+01 1.000000000000e+00 
1.696530036249e+01 1.000000000000e+00 
1.729799850523e+01 1.000000000000e+00 
1.729799850523e+01 1.000000000000e+00 
1.762736966548e+01 1.000000000000e+00 
1.762736966548e+01 1.000000000000e+00 
1.795344711143e+01 1.000000000000e+00 
1.795344711143e+01 1.000000000000e+00 
1.827626378268e+01 1.000000000000e+00 
1.827626378268e+01 1.000000000000e+00 
1.859585228716e+01 1.000000000000e+00 
1.859585228716e+01 1.000000000000e+00 
1.891224490721e+01 1.000000000000e+00 
1.891224490721e+01 1.000000000000e+00 
1.922547360320e+01 1.000000000000e+00 
1.922547360320e+01 1.000000000000e+00 
1.953557001297e+01 1.000000000000e+00 
1.953557001297e+01 1.000000000000e+00 
1.984256545841e+01 1.000000000000e+00 
1.984256545841e+01 1.000000000000e+00 
2.014649094826e+01 1.000000000000e+00 
2.014649094826e+01 1.000000000000e+00 
2.044737718114e+01 1.000000000000e+00 
2.044737718114e+01 1.000000000000e+00 
2.074525455164e+01 1.000000000000e+00 
2.074525455164e+01 1.000000000000e+00 
2.104015314978e+01 1.000000000000e+00 
2.104015314978e+01 1.000000000000e+00 
2.133210276364e+01 1.000000000000e+00 
2.133210276364e+01 1.000000000000e+00 
2.162113288213e+01 1.000000000000e+00 
2.162113288213e+01 1.000000000000e+00 
2.190727269749e+01 1.000000000000e+00 
2.190727269749e+01 1.000000000000e+00 
2.219055111465e+01 1.000000000000e+00 
2.219055111465e+01 1.000000000000e+00 
2.247099675018e+01 1.000000000000e+00 
2.247099675018e+01 1.000000000000e+00 
2.274863792808e+01 1.000000000000e+00 
2.274863792808e+01 1.000000000000e+00 
2.302350269226e+01 1.000000000000e+00 
2.302350269226e+01 1.000000000000e+00 
2.329561880873e+01 1.000000000000e+00 
2.329561880873e+01 1.000000000000e+00 
2.356501376456e+01 1.000000000000e+00 
2.356501376456e+01 1.000000000000e+00 
2.383171476996e+01 1.000000000000e+00 
2.383171476996e+01 1.000000000000e+00 
2.409574876737e+01 1.000000000000e+00 
2.409574876737e+01 1.000000000000e+00 
2.435714242639e+01 1.000000000000e+00 
2.435714242639e+01 1.000000000000e+00 
2.461592214625e+01 1.000000000000e+00 
2.461592214625e+01 1.000000000000e+00 
2.487211406765e+01 1.000000000000e+00 
2.487211406765e+01 1.000000000000e+00 
2.512574407129e+01 1.000000000000e+00 
2.512574407129e+01 1.000000000000e+00 
2.537683777640e+01 1.000000000000e+00 
2.537683777640e+01 1.000000000000e+00 
2.562542054256e+01 1.000000000000e+00 
2.562542054256e+01 1.000000000000e+00 
2.587151748159e+01 1.000000000000e+00 
2.587151748159e+01 1.000000000000e+00 
2.611515345238e+01 1.000000000000e+00 
2.611515345238e+01 1.000000000000e+00 
2.635635306271e+01 1.000000000000e+00 
2.635635306271e+01 1.000000000000e+00 
2.659514067751e+01 1.000000000000e+00 
2.659514067751e+01 1.000000000000e+00 
2.683154041702e+01 1.000000000000e+00 
2.683154041702e+01 1.000000000000e+00 
2.706557615834e+01 1.000000000000e+00 
2.706557615834e+01 1.000000000000e+00 
2.729727154026e+01 1.000000000000e+00 
2.729727154026e+01 1.000000000000e+00 
2.752664996800e+01 1.000000000000e+00 
2.752664996800e+01 1.000000000000e+00 
2.775373461120e+01 1.000000000000e+00 
2.775373461120e+01 1.000000000000e+00 
2.797854840863e+01 1.000000000000e+00 
2.797854840863e+01 1.000000000000e+00 
2.820111406940e+01 1.000000000000e+00 
2.820111406940e+01 1.000000000000e+00 
2.842145407423e+01 1.000000000000e+00 
2.842145407423e+01 1.000000000000e+00 
2.863959067996e+01 1.000000000000e+00 
2.863959067996e+01 1.000000000000e+00 
2.885554591724e+01 1.000000000000e+00 
2.885554591724e+01 1.000000000000e+00 
2.906934160231e+01 1.000000000000e+00 
2.906934160231e+01 1.000000000000e+00 
2.928099933335e+01 1.000000000000e+00 
2.928099933335e+01 1.000000000000e+00 
2.949054048608e+01 1.000000000000e+00 
2.949054048608e+01 1.000000000000e+00 
2.969798622754e+01 1.000000000000e+00 
2.969798622754e+01 1.000000000000e+00 
2.990335751034e+01 1.000000000000e+00 
2.990335751034e+01 1.000000000000e+00 
3.010667508036e+01 1.000000000000e+00 
3.010667508036e+01 1.000000000000e+00 
3.030795947741e+01 1.000000000000e+00 
3.030795947741e+01 1.000000000000e+00 
3.050723102941e+01 1.000000000000e+00 
3.050723102941e+01 1.000000000000e+00 
3.070450986321e+01 1.000000000000e+00 
3.070450986321e+01 1.000000000000e+00 
3.089981590866e+01 1.000000000000e+00 
3.089981590866e+01 1.000000000000e+00 
3.109316889580e+01 1.000000000000e+00 
3.109316889580e+01 1.000000000000e+00 
3.128458835220e+01 1.000000000000e+00 
3.128458835220e+01 1.000000000000e+00 
3.147409361367e+01 1.000000000000e+00 
3.147409361367e+01 1.000000000000e+00 
3.166170382127e+01 1.000000000000e+00 
3.166170382127e+01 1.000000000000e+00 
3.184743792559e+01 1.000000000000e+00 
3.184743792559e+01 1.000000000000e+00 
3.203131468986e+01 1.000000000000e+00 
3.203131468986e+01 1.000000000000e+00 
3.221335268768e+01 1.000000000000e+00 
3.221335268768e+01 1.000000000000e+00 
3.239357030641e+01 1.000000000000e+00 
3.239357030641e+01 1.000000000000e+00 
3.257198574766e+01 1.000000000000e+00 
3.257198574766e+01 1.000000000000e+00 
3.274861703431e+01 1.000000000000e+00 
3.274861703431e+01 1.000000000000e+00 
3.292348200723e+01 1.000000000000e+00 
3.292348200723e+01 1.000000000000e+00 
3.309659832956e+01 1.000000000000e+00 
3.309659832956e+01 1.000000000000e+00 
3.326798348904e+01 1.000000000000e+00 
3.326798348904e+01 1.000000000000e+00 
3.343765479937e+01 1.000000000000e+00 
3.343765479937e+01 1.000000000000e+00 
3.360562939632e+01 1.000000000000e+00 
3.360562939632e+01 1.000000000000e+00 
3.377192424487e+01 1.000000000000e+00 
3.377192424487e+01 1.000000000000e+00 
3.393655614579e+01 1.000000000000e+00 
3.393655614579e+01 1.000000000000e+00 
3.409954172902e+01 1.000000000000e+00 
3.409954172902e+01 1.000000000000e+00 
3.426089745701e+01 1.000000000000e+00 
3.426089745701e+01 1.000000000000e+00 
3.442063962808e+01 1.000000000000e+00 
3.442063962808e+01 1.000000000000e+00 
3.457878437631e+01 1.000000000000e+00 
3.457878437631e+01 1.000000000000e+00 
3.473534767486e+01 1.000000000000e+00 
3.473534767486e+01 1.000000000000e+00 
3.489034534246e+01 1.000000000000e+00 
3.489034534246e+01 1.000000000000e+00 
3.504379303310e+01 1.000000000000e+00 
3.504379303310e+01 1.000000000000e+00 
3.519570624634e+01 1.000000000000e+00 
3.519570624634e+01 1.000000000000e+00 
3.534610032966e+01 1.000000000000e+00 
3.534610032966e+01 1.000000000000e+00 
3.549499047221e+01 1.000000000000e+00 
3.549499047221e+01 1.000000000000e+00 
3.564239171422e+01 1.000000000000e+00 
3.564239171422e+01 1.000000000000e+00 
3.578831894341e+01 1.000000000000e+00 
3.578831894341e+01 1.000000000000e+00 
3.593278689801e+01 1.000000000000e+00 
3.593278689801e+01 1.000000000000e+00 
3.607581017308e+01 1.000000000000e+00 
3.607581017308e+01 1.000000000000e+00 
3.621740321667e+01 1.000000000000e+00 
3.621740321667e+01 1.000000000000e+00 
3.635758032943e+01 1.000000000000e+00 
3.635758032943e+01 1.000000000000e+00 
3.649635567091e+01 1.000000000000e+00 
3.649635567091e+01 1.000000000000e+00 
3.663374325892e+01 1.000000000000e+00 
3.663374325892e+01 1.000000000000e+00 
3.676975696914e+01 1.000000000000e+00 
3.676975696914e+01 1.000000000000e+00 
3.690441054120e+01 1.000000000000e+00 
3.690441054120e+01 1.000000000000e+00 
3.703771757811e+01 1.000000000000e+00 
3.703771757811e+01 1.000000000000e+00 
3.716969154561e+01 1.000000000000e+00 
3.716969154561e+01 1.000000000000e+00 
3.730034577491e+01 1.000000000000e+00 
3.730034577491e+01 1.000000000000e+00 
3.742969346205e+01 1.000000000000e+00 
3.742969346205e+01 1.000000000000e+00 
3.755774767053e+01 1.000000000000e+00 
3.755774767053e+01 1.000000000000e+00 
3.768452133736e+01 1.000000000000e+00 
3.768452133736e+01 1.000000000000e+00 
3.781002726882e+01 1.000000000000e+00 
3.781002726882e+01 1.000000000000e+00 
3.793427813982e+01 1.000000000000e+00 
3.793427813982e+01 1.000000000000e+00 
3.805728650313e+01 1.000000000000e+00 
3.805728650313e+01 1.000000000000e+00 
3.817906478515e+01 1.000000000000e+00 
3.817906478515e+01 1.000000000000e+00 
3.829962528172e+01 1.000000000000e+00 
3.829962528172e+01 1.000000000000e+00 
3.841898017080e+01 1.000000000000e+00 
3.841898017080e+01 1.000000000000e+00 
3.853714151137e+01 1.000000000000e+00 
3.853714151137e+01 1.000000000000e+00 
3.865412123927e+01 1.000000000000e+00 
3.865412123927e+01 1.000000000000e+00 
3.876993116952e+01 1.000000000000e+00 
3.876993116952e+01 1.000000000000e+00 
3.888458300218e+01 1.000000000000e+00 
3.888458300218e+01 1.000000000000e+00 
3.899808831784e+01 1.000000000000e+00 
3.899808831784e+01 1.000000000000e+00 
3.911045858010e+01 1.000000000000e+00 
3.911045858010e+01 1.000000000000e+00 
3.922170514117e+01 1.000000000000e+00 
3.922170514117e+01 1.000000000000e+00 
3.933183923406e+01 1.000000000000e+00 
3.933183923406e+01 1.000000000000e+00 
3.944087198509e+01 1.000000000000e+00 
3.944087198509e+01 1.000000000000e+00 
3.954881440913e+01 1.000000000000e+00 
3.954881440913e+01 1.000000000000e+00 
3.965567740871e+01 1.000000000000e+00 
3.965567740871e+01 1.000000000000e+00 
3.976147177944e+01 1.000000000000e+00 
3.976147177944e+01 1.000000000000e+00 
3.986620820551e+01 1.000000000000e+00 
3.986620820551e+01 1.000000000000e+00 
3.996989726862e+01 1.000000000000e+00 
3.996989726862e+01 1.000000000000e+00 
4.007254944325e+01 1.000000000000e+00 
4.007254944325e+01 1.000000000000e+00 
4.017417509557e+01 1.000000000000e+00 
4.017417509557e+01 1.000000000000e+00 
4.027478448882e+01 1.000000000000e+00 
4.027478448882e+01 1.000000000000e+00 
4.037438778880e+01 1.000000000000e+00 
4.037438778880e+01 1.000000000000e+00 
4.047299505568e+01 1.000000000000e+00 
4.047299505568e+01 1.000000000000e+00 
4.057061624961e+01 1.000000000000e+00 
4.057061624961e+01 1.000000000000e+00 
4.066726123252e+01 1.000000000000e+00 
4.066726123252e+01 1.000000000000e+00 
4.076293976355e+01 1.000000000000e+00 
4.076293976355e+01 1.000000000000e+00 
4.085766151103e+01 1.000000000000e+00 
4.085766151103e+01 1.000000000000e+00 
4.095143604094e+01 1.000000000000e+00 
4.095143604094e+01 1.000000000000e+00 
4.104427282570e+01 1.000000000000e+00 
4.104427282570e+01 1.000000000000e+00 
4.113618124255e+01 1.000000000000e+00 
4.113618124255e+01 1.000000000000e+00 
4.122717057225e+01 1.000000000000e+00 
4.122717057225e+01 1.000000000000e+00 
4.131725001094e+01 1.000000000000e+00 
4.131725001094e+01 1.000000000000e+00 
4.140642865511e+01 1.000000000000e+00 
4.140642865511e+01 1.000000000000e+00 
4.149471551037e+01 1.000000000000e+00 
4.149471551037e+01 1.000000000000e+00 
4.158211949983e+01 1.000000000000e+00 
4.158211949983e+01 1.000000000000e+00 
4.166864944907e+01 1.000000000000e+00 
4.166864944907e+01 1.000000000000e+00 
4.175431409817e+01 1.000000000000e+00 
4.175431409817e+01 1.000000000000e+00 
4.183912210329e+01 1.000000000000e+00 
4.183912210329e+01 1.000000000000e+00 
4.192308202844e+01 1.000000000000e+00 
4.192308202844e+01 1.000000000000e+00 
4.200620235391e+01 1.000000000000e+00 
4.200620235391e+01 1.000000000000e+00 
4.208849147464e+01 1.000000000000e+00 
4.208849147464e+01 1.000000000000e+00 
4.216995770525e+01 1.000000000000e+00 
4.216995770525e+01 1.000000000000e+00 
4.225060927494e+01 1.000000000000e+00 
4.225060927494e+01 1.000000000000e+00 
4.233045432588e+01 1.000000000000e+00 
4.233045432588e+01 1.000000000000e+00 
4.240950092496e+01 1.000000000000e+00 
4.240950092496e+01 1.000000000000e+00 
4.248775705857e+01 1.000000000000e+00 
4.248775705857e+01 1.000000000000e+00 
4.256523063092e+01 1.000000000000e+00 
4.256523063092e+01 1.000000000000e+00 
4.264192946901e+01 1.000000000000e+00 
4.264192946901e+01 1.000000000000e+00 
4.271786132079e+01 1.000000000000e+00 
4.271786132079e+01 1.000000000000e+00 
4.279303385342e+01 1.000000000000e+00 
4.279303385342e+01 1.000000000000e+00 
4.286745465820e+01 1.000000000000e+00 
4.286745465820e+01 1.000000000000e+00 
4.294113125542e+01 1.000000000000e+00 
4.294113125542e+01 1.000000000000e+00 
4.301407108912e+01 1.000000000000e+00 
4.301407108912e+01 1.000000000000e+00 
4.308628152526e+01 1.000000000000e+00 
4.308628152526e+01 1.000000000000e+00 
4.315776985661e+01 1.000000000000e+00 
4.315776985661e+01 1.000000000000e+00 
4.322854330419e+01 1.000000000000e+00 
4.322854330419e+01 1.000000000000e+00 
4.329860901535e+01 1.000000000000e+00 
4.329860901535e+01 1.000000000000e+00 
4.336797406865e+01 1.000000000000e+00 
4.336797406865e+01 1.000000000000e+00 
4.343664547178e+01 1.000000000000e+00 
4.343664547178e+01 1.000000000000e+00 
4.350463015975e+01 1.000000000000e+00 
4.350463015975e+01 1.000000000000e+00 
4.357193500295e+01 1.000000000000e+00 
4.357193500295e+01 1.000000000000e+00 
4.363856679839e+01 1.000000000000e+00 
4.363856679839e+01 1.000000000000e+00 
4.370453227461e+01 1.000000000000e+00 
4.370453227461e+01 1.000000000000e+00 
4.376983809623e+01 1.000000000000e+00 
4.376983809623e+01 1.000000000000e+00 
4.383449085865e+01 1.000000000000e+00 
4.383449085865e+01 1.000000000000e+00 
4.389849709276e+01 1.000000000000e+00 
4.389849709276e+01 1.000000000000e+00 
4.396186326620e+01 1.000000000000e+00 
4.396186326620e+01 1.000000000000e+00 
4.402459577792e+01 1.000000000000e+00 
4.402459577792e+01 1.000000000000e+00 
4.408670096296e+01 1.000000000000e+00 
4.408670096296e+01 1.000000000000e+00 
4.414818509696e+01 1.000000000000e+00 
4.414818509696e+01 1.000000000000e+00 
4.420905439077e+01 1.000000000000e+00 
4.420905439077e+01 1.000000000000e+00 
4.426931499167e+01 1.000000000000e+00 
4.426931499167e+01 1.000000000000e+00 
4.432897298464e+01 1.000000000000e+00 
4.432897298464e+01 1.000000000000e+00 
4.438803439697e+01 1.000000000000e+00 
4.438803439697e+01 1.000000000000e+00 
4.444650519603e+01 1.000000000000e+00 
4.444650519603e+01 1.000000000000e+00 
4.450439128717e+01 1.000000000000e+00 
4.450439128717e+01 1.000000000000e+00 
4.456169851830e+01 1.000000000000e+00 
4.456169851830e+01 1.000000000000e+00 
4.461843267761e+01 1.000000000000e+00 
4.461843267761e+01 1.000000000000e+00 
4.467459949486e+01 1.000000000000e+00 
4.467459949486e+01 1.000000000000e+00 
4.473020464583e+01 1.000000000000e+00 
4.473020464583e+01 1.000000000000e+00 
4.478525374670e+01 1.000000000000e+00 
4.478525374670e+01 1.000000000000e+00 
4.483975235530e+01 1.000000000000e+00 
4.483975235530e+01 1.000000000000e+00 
4.489370597550e+01 1.000000000000e+00 
4.489370597550e+01 1.000000000000e+00 
4.494712005841e+01 1.000000000000e+00 
4.494712005841e+01 1.000000000000e+00 
4.500000000000e+01 1.000000000000e+00 
4.500000000000e+01 1.000000000000e+00 
 TITLE = "Profiles along polylines"
 VARIABLES = "DIST" "SATURATION1" 
 ZONE T="TIME=1.797693134862e+308"
0.000000000000e+00 1.000000000000e+00 
0.000000000000e+00 1.000000000000e+00 
5.023511443667e-01 1.000000000000e+00 
5.023511443667e-01 1.000000000000e+00 
9.996787804678e-01 1.000000000000e+00 
9.996787804678e-01 1.000000000000e+00 
1.492033141008e+00 1.000000000000e+00 
1.492033141008e+00 1.000000000000e+00 
1.979463956085e+00 1.000000000000e+00 
1.979463956085e+00 1.000000000000e+00 
2.462020463241e+00 1.000000000000e+00 
2.462020463241e+00 1.000000000000e+00 
2.939751407203e+00 1.000000000000e+00 
2.939751407203e+00 1.000000000000e+00 
3.412705039729e+00 1.000000000000e+00 
3.412705039729e+00 1.000000000000e+00 
3.880929132699e+00 1.000000000000e+00 
3.880929132699e+00 1.000000000000e+00 
4.344470984477e+00 1.000000000000e+00 
4.344470984477e+00 1.000000000000e+00 
4.803377419061e+00 1.000000000000e+00 
4.803377419061e+00 1.000000000000e+00 
5.257694789126e+00 1.000000000000e+00 
5.257694789126e+00 1.000000000000e+00 
5.707468985260e+00 1.000000000000e+00 
5.707468985260e+00 1.000000000000e+00 
6.152745441858e+00 1.000000000000e+00 
6.152745441858e+00 1.000000000000e+00 
6.593569132803e+00 1.000000000000e+00 
6.593569132803e+00 1.000000000000e+00 
7.029984584063e+00 1.000000000000e+00 
7.029984584063e+00 1.000000000000e+00 
7.462035882509e+00 1.000000000000e+00 
7.462035882509e+00 1.000000000000e+00 
7.889766668024e+00 1.000000000000e+00 
7.889766668024e+00 1.000000000000e+00 
8.313220145764e+00 1.000000000000e+00 
8.313220145764e+00 1.000000000000e+00 
8.732439091408e+00 1.000000000000e+00 
8.732439091408e+00 1.000000000000e+00 
9.147465846375e+00 1.000000000000e+00 
9.147465846375e+00 1.000000000000e+00 
9.558342333195e+00 1.000000000000e+00 
9.558342333195e+00 1.000000000000e+00 
9.965110057073e+00 1.000000000000e+00 
9.965110057073e+00 1.000000000000e+00 
1.036781010429e+01 1.000000000000e+00 
1.036781010429e+01 1.000000000000e+00 
1.076648315045e+01 1.000000000000e+00 
1.076648315045e+01 1.000000000000e+00 
1.116116946540e+01 1.000000000000e+00 
1.116116946540e+01 1.000000000000e+00 
1.155190891787e+01 1.000000000000e+00 
1.155190891787e+01 1.000000000000e+00 
1.193874097353e+01 1.000000000000e+00 
1.193874097353e+01 1.000000000000e+00 
1.232170470634e+01 1.000000000000e+00 
1.232170470634e+01 1.000000000000e+00 
1.270083880294e+01 1.000000000000e+00 
1.270083880294e+01 1.000000000000e+00 
1.307618156046e+01 1.000000000000e+00 
1.307618156046e+01 1.000000000000e+00 
1.344777089085e+01 1.000000000000e+00 
1.344777089085e+01 1.000000000000e+00 
1.381564432860e+01 1.000000000000e+00 
1.381564432860e+01 1.000000000000e+00 
1.417983903150e+01 1.000000000000e+00 
1.417983903150e+01 1.000000000000e+00 
1.454039178488e+01 1.000000000000e+00 
1.454039178488e+01 1.000000000000e+00 
1.489733901232e+01 1.000000000000e+00 
1.489733901232e+01 1.000000000000e+00 
1.525071676951e+01 1.000000000000e+00 
1.525071676951e+01 1.000000000000e+00 
1.560056074825e+01 1.000000000000e+00 
1.560056074825e+01 1.000000000000e+00 
1.594690628703e+01 1.000000000000e+00 
1.594690628703e+01 1.000000000000e+00 
1.628978837134e+01 1.000000000000e+00 
1.628978837134e+01 1.000000000000e+00 
1.662924163406e+01 1.000000000000e+00 
1.662924163406e+01 1.000000000000e+00 
1.696530036249e+01 1.000000000000e+00 
1.696530036249e+01 1.000000000000e+00 
1.729799850523e+01 1.000000000000e+00 
1.729799850523e+01 1.000000000000e+00 
1.762736966548e+01 1.000000000000e+00 
1.762736966548e+01 1.000000000000e+00 
1.795344711143e+01 1.000000000000e+00 
1.795344711143e+01 1.000000000000e+00 
1.827626378268e+01 1.000000000000e+00 
1.827626378268e+01 1.000000000000e+00 
1.859585228716e+01 1.000000000000e+00 
1.859585228716e+01 1.000000000000e+00 
1.891224490721e+01 1.000000000000e+00 
1.891224490721e+01 1.000000000000e+00 
1.922547360320e+01 1.000000000000e+00 
1.922547360320e+01 1.000000000000e+00 
1.953557001297e+01 1.000000000000e+00 
1.953557001297e+01 1.000000000000e+00 
1.984256545841e+01 1.000000000000e+00 
1.984256545841e+01 1.000000000000e+00 
2.014649094826e+01 9.675861407772e-01 
2.014649094826e+01 9.727933950853e-01 
2.044737718114e+01 9.011743827176e-01 
2.044737718114e+01 9.061502207100e-01 
2.074525455164e+01 8.435065983750e-01 
2.074525455164e+01 8.477334058129e-01 
2.104015314978e+01 7.956260004875e-01 
2.104015314978e+01 7.991558797784e-01 
2.133210276364e+01 7.559365106488e-01 
2.133210276364e+01 7.589051048162e-01 
2.162113288213e+01 7.226752017249e-01 
2.162113288213e+01 7.252040643183e-01 
2.190727269749e+01 6.944220726114e-01 
2.190727269749e+01 6.966055399556e-01 
2.219055111465e+01 6.701064217090e-01 
2.219055111465e+01 6.720153994498e-01 
2.247099675018e+01 6.489294961461e-01 
2.247099675018e+01 6.506172414046e-01 
2.274863792808e+01 6.302913377177e-01 
2.274863792808e+01 6.317982499455e-01 
2.302350269226e+01 6.137355217578e-01 
2.302350269226e+01 6.150926607367e-01 
2.329561880873e+01 5.989097757447e-01 
2.329561880873e+01 6.001413612871e-01 
2.356501376456e+01 5.855382750945e-01 
2.356501376456e+01 5.866634553866e-01 
2.383171476996e+01 5.734020829950e-01 
2.383171476996e+01 5.744361940082e-01 
2.409574876737e+01 5.623251975765e-01 
2.409574876737e+01 5.632806701872e-01 
2.435714242639e+01 5.521644708650e-01 
2.435714242639e+01 5.530514927626e-01 
2.461592214625e+01 5.428022244525e-01 
2.461592214625e+01 5.436292295988e-01 
2.487211406765e+01 5.341407667525e-01 
2.487211406765e+01 5.349148020768e-01 
2.512574407129e+01 5.260982694512e-01 
2.512574407129e+01 5.268252730269e-01 
2.537683777640e+01 5.186056273417e-01 
2.537683777640e+01 5.192906419147e-01 
2.562542054256e+01 5.116040390488e-01 
2.562542054256e+01 5.122513777636e-01 
2.587151748159e+01 5.050431226646e-01 
2.587151748159e+01 5.056564990252e-01 
2.611515345238e+01 4.988794337465e-01 
2.611515345238e+01 4.994620645188e-01 
2.635635306271e+01 4.930752881848e-01 
2.635635306271e+01 4.936299756114e-01 
2.659514067751e+01 4.875978189662e-01 
2.659514067751e+01 4.881270170042e-01 
2.683154041702e+01 4.824182144699e-01 
2.683154041702e+01 4.829240825789e-01 
2.706557615834e+01 4.775110983654e-01 
2.706557615834e+01 4.779955455063e-01 
2.729727154026e+01 4.728540211485e-01 
2.729727154026e+01 4.733187420229e-01 
2.752664996800e+01 4.684270404672e-01 
2.752664996800e+01 4.688735455580e-01 
2.775373461120e+01 4.642123726622e-01 
2.775373461120e+01 4.646420132887e-01 
2.797854840863e+01 4.601941014927e-01 
2.797854840863e+01 4.606080908245e-01 
2.820111406940e+01 4.563579334661e-01 
2.820111406940e+01 4.567573642447e-01 
2.842145407423e+01 4.526909911810e-01 
2.842145407423e+01 4.530768507386e-01 
2.863959067996e+01 4.491816378590e-01 
2.863959067996e+01 4.495548209092e-01 
2.885554591724e+01 4.458193278111e-01 
2.885554591724e+01 4.461806473910e-01 
2.906934160231e+01 4.425944781359e-01 
2.906934160231e+01 4.429446750059e-01 
2.928099933335e+01 4.394983585842e-01 
2.928099933335e+01 4.398381093372e-01 
2.949054048608e+01 4.365229964501e-01 
2.949054048608e+01 4.368529205343e-01 
2.969798622754e+01 4.336610938711e-01 
2.969798622754e+01 4.339817596930e-01 
2.990335751034e+01 4.309059561438e-01 
2.990335751034e+01 4.312178863912e-01 
3.010667508036e+01 4.282514289649e-01 
3.010667508036e+01 4.285551052655e-01 
3.030795947741e+01 4.256918435570e-01 
3.030795947741e+01 4.259877105676e-01 
3.050723102941e+01 4.232219685344e-01 
3.050723102941e+01 4.235104375421e-01 
3.070450986321e+01 4.208369672874e-01 
3.070450986321e+01 4.211184193894e-01 
3.089981590866e+01 4.185323604051e-01 
3.089981590866e+01 4.188071493245e-01 
3.109316889580e+01 4.163039924571e-01 
3.109316889580e+01 4.165724470430e-01 
3.128458835220e+01 4.141480024786e-01 
3.128458835220e+01 4.144104289323e-01 
3.147409361367e+01 4.120607975379e-01 
3.147409361367e+01 4.123174813983e-01 
3.166170382127e+01 4.100390292863e-01 
3.166170382127e+01 4.102902372067e-01 
3.184743792559e+01 4.080795728985e-01 
3.184743792559e+01 4.083255542386e-01 
3.203131468986e+01 4.061795081983e-01 
3.203131468986e+01 4.064204964547e-01 
3.221335268768e+01 4.043361027517e-01 
3.221335268768e+01 4.045723168457e-01 
3.239357030641e+01 4.025467965840e-01 
3.239357030641e+01 4.027784420236e-01 
3.257198574766e+01 4.008091884203e-01 
3.257198574766e+01 4.010364583497e-01 
3.274861703431e+01 3.991210231829e-01 
3.274861703431e+01 3.993440993336e-01 
3.292348200723e+01 3.974801807664e-01 
3.292348200723e+01 3.976992343189e-01 
3.309659832956e+01 3.958846657828e-01 
3.309659832956e+01 3.960998581510e-01 
3.326798348904e+01 3.943325982607e-01 
3.326798348904e+01 3.945440818043e-01 
3.343765479937e+01 3.928222051865e-01 
3.343765479937e+01 3.930301238618e-01 
3.360562939632e+01 3.913518128387e-01 
3.360562939632e+01 3.915563027922e-01 
3.377192424487e+01 3.899198396927e-01 
3.377192424487e+01 3.901210298036e-01 
3.393655614579e+01 3.885247899371e-01 
3.393655614579e+01 3.887228023151e-01 
3.409954172902e+01 3.871652476465e-01 
3.409954172902e+01 3.873601980875e-01 
3.426089745701e+01 3.858398713547e-01 
3.426089745701e+01 3.860318697597e-01 
3.442063962808e+01 3.845473890714e-01 
3.442063962808e+01 3.847365398313e-01 
3.457878437631e+01 3.832865937277e-01 
3.457878437631e+01 3.834729960783e-01 
3.473534767486e+01 3.820563389550e-01 
3.473534767486e+01 3.822400873037e-01 
3.489034534246e+01 3.808555351706e-01 
3.489034534246e+01 3.810367193982e-01 
3.504379303310e+01 3.796831460921e-01 
3.504379303310e+01 3.798618518316e-01 
3.519570624634e+01 3.785381853619e-01 
3.519570624634e+01 3.787144942566e-01 
3.534610032966e+01 3.774197134834e-01 
3.534610032966e+01 3.775937034258e-01 
3.549499047221e+01 3.763268350473e-01 
3.549499047221e+01 3.764985804006e-01 
3.564239171422e+01 3.752586960459e-01 
3.564239171422e+01 3.754282678499e-01 
3.578831894341e+01 3.742144814749e-01 
3.578831894341e+01 3.743819476371e-01 
3.593278689801e+01 3.731934130577e-01 
3.593278689801e+01 3.733588385309e-01 
3.607581017308e+01 3.721947471072e-01 
3.607581017308e+01 3.723581940550e-01 
3.621740321667e+01 3.712177726049e-01 
3.621740321667e+01 3.713793005558e-01 
3.635758032943e+01 3.702618093879e-01 
3.635758032943e+01 3.704214753795e-01 
3.649635567091e+01 3.693262064140e-01 
3.649635567091e+01 3.694840651268e-01 
3.663374325892e+01 3.684103401874e-01 
3.663374325892e+01 3.685664440706e-01 
3.676975696914e+01 3.675136132878e-01 
3.676975696914e+01 3.676680126767e-01 
3.690441054120e+01 3.666354529520e-01 
3.690441054120e+01 3.667881961774e-01 
3.703771757811e+01 3.657753097904e-01 
3.703771757811e+01 3.659264432819e-01 
3.716969154561e+01 3.649326565849e-01 
3.716969154561e+01 3.650822249671e-01 
3.730034577491e+01 3.641069871412e-01 
3.730034577491e+01 3.642550333243e-01 
3.742969346205e+01 3.632978152339e-01 
3.742969346205e+01 3.634443804985e-01 
3.755774767053e+01 3.625046735952e-01 
3.755774767053e+01 3.626497976724e-01 
3.768452133736e+01 3.617271129453e-01 
3.768452133736e+01 3.618708340915e-01 
3.781002726882e+01 3.609647011422e-01 
3.781002726882e+01 3.611070562097e-01 
3.793427813982e+01 3.602170223610e-01 
3.793427813982e+01 3.603580468646e-01 
3.805728650313e+01 3.594836762627e-01 
3.805728650313e+01 3.596234044424e-01 
3.817906478515e+01 3.587642772907e-01 
3.817906478515e+01 3.589027421707e-01 
3.829962528172e+01 3.580584540067e-01 
3.829962528172e+01 3.581956874510e-01 
3.841898017080e+01 3.573658483679e-01 
3.841898017080e+01 3.575018811332e-01 
3.853714151137e+01 3.566861151234e-01 
3.853714151137e+01 3.568209769086e-01 
3.865412123927e+01 3.560189212613e-01 
3.865412123927e+01 3.561526407544e-01 
3.876993116952e+01 3.553639454502e-01 
3.876993116952e+01 3.554965503729e-01 
3.888458300218e+01 3.547208774913e-01 
3.888458300218e+01 3.548523946410e-01 
3.899808831784e+01 3.540894178575e-01 
3.899808831784e+01 3.542198731472e-01 
3.911045858010e+01 3.534692772189e-01 
3.911045858010e+01 3.535986957146e-01 
3.922170514117e+01 3.528601759763e-01 
3.922170514117e+01 3.529885819329e-01 
3.933183923406e+01 3.522618438913e-01 
3.933183923406e+01 3.523892607867e-01 
3.944087198509e+01 3.516740196278e-01 
3.944087198509e+01 3.518004701949e-01 
3.954881440913e+01 3.510964504074e-01 
3.954881440913e+01 3.512219566646e-01 
3.965567740871e+01 3.505288916633e-01 