 TITLE = "Profiles along polylines"
 VARIABLES = "DIST" "SATURATION1" 
 ZONE T="TIME=0.000000000000e+00"
0.000000000000e+00 1.000000000000e+00 
5.023511443667e-01 1.000000000000e+00 
9.996787804678e-01 1.000000000000e+00 
1.492033141008e+00 1.000000000000e+00 
1.979463956085e+00 1.000000000000e+00 
2.462020463241e+00 1.000000000000e+00 
2.939751407203e+00 1.000000000000e+00 
3.412705039729e+00 1.000000000000e+00 
3.880929132699e+00 1.000000000000e+00 
4.344470984477e+00 1.000000000000e+00 
4.803377419061e+00 1.000000000000e+00 
5.257694789126e+00 1.000000000000e+00 
5.707468985260e+00 1.000000000000e+00 
6.152745441858e+00 1.000000000000e+00 
6.593569132803e+00 1.000000000000e+00 
7.029984584063e+00 1.000000000000e+00 
7.462035882509e+00 1.000000000000e+00 
7.889766668024e+00 1.000000000000e+00 
8.313220145764e+00 1.000000000000e+00 
8.732439091408e+00 1.000000000000e+00 
9.147465846375e+00 1.000000000000e+00 
9.558342333195e+00 1.000000000000e+00 
9.965110057073e+00 1.000000000000e+00 
1.036781010429e+01 1.000000000000e+00 
1.076648315045e+01 1.000000000000e+00 
1.116116946540e+01 1.000000000000e+00 
1.155190891787e+01 1.000000000000e+00 
1.193874097353e+01 1.000000000000e+00 
1.232170470634e+01 1.000000000000e+00 
1.270083880294e+01 1.000000000000e+00 
1.307618156046e+01 1.000000000000e+00 
1.344777089085e+01 1.000000000000e+00 
1.381564432860e+01 1.000000000000e+00 
1.417983903150e+01 1.000000000000e+00 
1.454039178488e+01 1.000000000000e+00 
1.489733901232e+01 1.000000000000e+00 
1.525071676951e+01 1.000000000000e+00 
1.560056074825e+01 1.000000000000e+00 
1.594690628703e+01 1.000000000000e+00 
1.628978837134e+01 1.000000000000e+00 
1.662924163406e+01 1.000000000000e+00 
1.696530036249e+01 1.000000000000e+00 
1.729799850523e+01 1.000000000000e+00 
1.762736966548e+01 1.000000000000e+00 
1.795344711143e+01 1.000000000000e+00 
1.827626378268e+01 1.000000000000e+00 
1.859585228716e+01 1.000000000000e+00 
1.891224490721e+01 1.000000000000e+00 
1.922547360320e+01 1.000000000000e+00 
1.953557001297e+01 1.000000000000e+00 
1.984256545841e+01 1.000000000000e+00 
2.014649094826e+01 1.000000000000e+00 
2.044737718114e+01 1.000000000000e+00 
2.074525455164e+01 1.000000000000e+00 
2.104015314978e+01 1.000000000000e+00 
2.133210276364e+01 1.000000000000e+00 
2.162113288213e+01 1.000000000000e+00 
2.190727269749e+01 1.000000000000e+00 
2.219055111465e+01 1.000000000000e+00 
2.247099675018e+01 1.000000000000e+00 
2.274863792808e+01 1.000000000000e+00 
2.302350269226e+01 1.000000000000e+00 
2.329561880873e+01 1.000000000000e+00 
2.356501376456e+01 1.000000000000e+00 
2.383171476996e+01 1.000000000000e+00 
2.409574876737e+01 1.000000000000e+00 
2.435714242639e+01 1.000000000000e+00 
2.461592214625e+01 1.000000000000e+00 
2.487211406765e+01 1.000000000000e+00 
2.512574407129e+01 1.000000000000e+00 
2.537683777640e+01 1.000000000000e+00 
2.562542054256e+01 1.000000000000e+00 
2.587151748159e+01 1.000000000000e+00 
2.611515345238e+01 1.000000000000e+00 
2.635635306271e+01 1.000000000000e+00 
2.659514067751e+01 1.000000000000e+00 
2.683154041702e+01 1.000000000000e+00 
2.706557615834e+01 1.000000000000e+00 
2.729727154026e+01 1.000000000000e+00 
2.752664996800e+01 1.000000000000e+00 
2.775373461120e+01 1.000000000000e+00 
2.797854840863e+01 1.000000000000e+00 
2.820111406940e+01 1.000000000000e+00 
2.842145407423e+01 1.000000000000e+00 
2.863959067996e+01 1.000000000000e+00 
2.885554591724e+01 1.000000000000e+00 
2.906934160231e+01 1.000000000000e+00 
2.928099933335e+01 1.000000000000e+00 
2.949054048608e+01 1.000000000000e+00 
2.969798622754e+01 1.000000000000e+00 
2.990335751034e+01 1.000000000000e+00 
3.010667508036e+01 1.000000000000e+00 
3.030795947741e+01 1.000000000000e+00 
3.050723102941e+01 1.000000000000e+00 
3.070450986321e+01 1.000000000000e+00 
3.089981590866e+01 1.000000000000e+00 
3.109316889580e+01 1.000000000000e+00 
3.128458835220e+01 1.000000000000e+00 
3.147409361367e+01 1.000000000000e+00 
3.166170382127e+01 1.000000000000e+00 
3.184743792559e+01 1.000000000000e+00 
3.203131468986e+01 1.000000000000e+00 
3.221335268768e+01 1.000000000000e+00 
3.239357030641e+01 1.000000000000e+00 
3.257198574766e+01 1.000000000000e+00 
3.274861703431e+01 1.000000000000e+00 
3.292348200723e+01 1.000000000000e+00 
3.309659832956e+01 1.000000000000e+00 
3.326798348904e+01 1.000000000000e+00 
3.343765479937e+01 1.000000000000e+00 
3.360562939632e+01 1.000000000000e+00 
3.377192424487e+01 1.000000000000e+00 
3.393655614579e+01 1.000000000000e+00 
3.409954172902e+01 1.000000000000e+00 
3.426089745701e+01 1.000000000000e+00 
3.442063962808e+01 1.000000000000e+00 
3.457878437631e+01 1.000000000000e+00 
3.473534767486e+01 1.000000000000e+00 
3.489034534246e+01 1.000000000000e+00 
3.504379303310e+01 1.000000000000e+00 
3.519570624634e+01 1.000000000000e+00 
3.534610032966e+01 1.000000000000e+00 
3.549499047221e+01 1.000000000000e+00 
3.564239171422e+01 1.000000000000e+00 
3.578831894341e+01 1.000000000000e+00 
3.593278689801e+01 1.000000000000e+00 
3.607581017308e+01 1.000000000000e+00 
3.621740321667e+01 1.000000000000e+00 
3.635758032943e+01 1.000000000000e+00 
3.649635567091e+01 1.000000000000e+00 
3.663374325892e+01 1.000000000000e+00 
3.676975696914e+01 1.000000000000e+00 
3.690441054120e+01 1.000000000000e+00 
3.703771757811e+01 1.000000000000e+00 
3.716969154561e+01 1.000000000000e+00 
3.730034577491e+01 1.000000000000e+00 
3.742969346205e+01 1.000000000000e+00 
3.755774767053e+01 1.000000000000e+00 
3.768452133736e+01 1.000000000000e+00 
3.781002726882e+01 1.000000000000e+00 
3.793427813982e+01 1.000000000000e+00 
3.805728650313e+01 1.000000000000e+00 
3.817906478515e+01 1.000000000000e+00 
3.829962528172e+01 1.000000000000e+00 
3.841898017080e+01 1.000000000000e+00 
3.853714151137e+01 1.000000000000e+00 
3.865412123927e+01 1.000000000000e+00 
3.876993116952e+01 1.000000000000e+00 
3.888458300218e+01 1.000000000000e+00 
3.899808831784e+01 1.000000000000e+00 
3.911045858010e+01 1.000000000000e+00 
3.922170514117e+01 1.000000000000e+00 
3.933183923406e+01 1.000000000000e+00 
3.944087198509e+01 1.000000000000e+00 
3.954881440913e+01 1.000000000000e+00 
3.965567740871e+01 1.000000000000e+00 
3.976147177944e+01 1.000000000000e+00 
3.986620820551e+01 1.000000000000e+00 
3.996989726862e+01 1.000000000000e+00 
4.007254944325e+01 1.000000000000e+00 
4.017417509557e+01 1.000000000000e+00 
4.027478448882e+01 1.000000000000e+00 
4.037438778880e+01 1.000000000000e+00 
4.047299505568e+01 1.000000000000e+00 
4.057061624961e+01 1.000000000000e+00 
4.066726123252e+01 1.000000000000e+00 
4.076293976355e+01 1.000000000000e+00 
4.085766151103e+01 1.000000000000e+00 
4.095143604094e+01 1.000000000000e+00 
4.104427282570e+01 1.000000000000e+00 
4.113618124255e+01 1.000000000000e+00 
4.122717057225e+01 1.000000000000e+00 
4.131725001094e+01 1.000000000000e+00 
4.140642865511e+01 1.000000000000e+00 
4.149471551037e+01 1.000000000000e+00 
4.158211949983e+01 1.000000000000e+00 
4.166864944907e+01 1.000000000000e+00 
4.175431409817e+01 1.000000000000e+00 
4.183912210329e+01 1.000000000000e+00 
4.192308202844e+01 1.000000000000e+00 
4.200620235391e+01 1.000000000000e+00 
4.208849147464e+01 1.000000000000e+00 
4.216995770525e+01 1.000000000000e+00 
4.225060927494e+01 1.000000000000e+00 
4.233045432588e+01 1.000000000000e+00 
4.240950092496e+01 1.000000000000e+00 
4.248775705857e+01 1.000000000000e+00 
4.256523063092e+01 1.000000000000e+00 
4.264192946901e+01 1.000000000000e+00 
4.271786132079e+01 1.000000000000e+00 
4.279303385342e+01 1.000000000000e+00 
4.286745465820e+01 1.000000000000e+00 
4.294113125542e+01 1.000000000000e+00 
4.301407108912e+01 1.000000000000e+00 
4.308628152526e+01 1.000000000000e+00 
4.315776985661e+01 1.000000000000e+00 
4.322854330419e+01 1.000000000000e+00 
4.329860901535e+01 1.000000000000e+00 
4.336797406865e+01 1.000000000000e+00 
4.343664547178e+01 1.000000000000e+00 
4.350463015975e+01 1.000000000000e+00 
4.357193500295e+01 1.000000000000e+00 
4.363856679839e+01 1.000000000000e+00 
4.370453227461e+01 1.000000000000e+00 
4.376983809623e+01 1.000000000000e+00 
4.383449085865e+01 1.000000000000e+00 
4.389849709276e+01 1.000000000000e+00 
4.396186326620e+01 1.000000000000e+00 
4.402459577792e+01 1.000000000000e+00 
4.408670096296e+01 1.000000000000e+00 
4.414818509696e+01 1.000000000000e+00 
4.420905439077e+01 1.000000000000e+00 
4.426931499167e+01 1.000000000000e+00 
4.432897298464e+01 1.000000000000e+00 
4.438803439697e+01 1.000000000000e+00 
4.444650519603e+01 1.000000000000e+00 
4.450439128717e+01 1.000000000000e+00 
4.456169851830e+01 1.000000000000e+00 
4.461843267761e+01 1.000000000000e+00 
4.467459949486e+01 1.000000000000e+00 
4.473020464583e+01 1.000000000000e+00 
4.478525374670e+01 1.000000000000e+00 
4.483975235530e+01 1.000000000000e+00 
4.489370597550e+01 1.000000000000e+00 
4.494712005841e+01 1.000000000000e+00 
4.500000000000e+01 1.000000000000e+00 
 TITLE = "Profiles along polylines"
 VARIABLES = "DIST" "SATURATION1" 
 ZONE T="TIME=1.797693134862e+308"
0.000000000000e+00 1.000000000000e+00 
5.023511443667e-01 1.000000000000e+00 
9.996787804678e-01 1.000000000000e+00 
1.492033141008e+00 1.000000000000e+00 
1.979463956085e+00 1.000000000000e+00 
2.462020463241e+00 1.000000000000e+00 
2.939751407203e+00 1.000000000000e+00 
3.412705039729e+00 1.000000000000e+00 
3.880929132699e+00 1.000000000000e+00 
4.344470984477e+00 1.000000000000e+00 
4.803377419061e+00 1.000000000000e+00 
5.257694789126e+00 1.000000000000e+00 
5.707468985260e+00 1.000000000000e+00 
6.152745441858e+00 1.000000000000e+00 
6.593569132803e+00 1.000000000000e+00 
7.029984584063e+00 1.000000000000e+00 
7.462035882509e+00 1.000000000000e+00 
7.889766668024e+00 1.000000000000e+00 
8.313220145764e+00 1.000000000000e+00 
8.732439091408e+00 1.000000000000e+00 
9.147465846375e+00 1.000000000000e+00 
9.558342333195e+00 1.000000000000e+00 
9.965110057073e+00 1.000000000000e+00 
1.036781010429e+01 1.000000000000e+00 
1.076648315045e+01 1.000000000000e+00 
1.116116946540e+01 1.000000000000e+00 
1.155190891787e+01 1.000000000000e+00 
1.193874097353e+01 1.000000000000e+00 
1.232170470634e+01 1.000000000000e+00 
1.270083880294e+01 1.000000000000e+00 
1.307618156046e+01 1.000000000000e+00 
1.344777089085e+01 1.000000000000e+00 
1.381564432860e+01 1.000000000000e+00 
1.417983903150e+01 1.000000000000e+00 
1.454039178488e+01 1.000000000000e+00 
1.489733901232e+01 1.000000000000e+00 
1.525071676951e+01 1.000000000000e+00 
1.560056074825e+01 1.000000000000e+00 
1.594690628703e+01 1.000000000000e+00 
1.628978837134e+01 1.000000000000e+00 
1.662924163406e+01 1.000000000000e+00 
1.696530036249e+01 1.000000000000e+00 
1.729799850523e+01 1.000000000000e+00 
1.762736966548e+01 1.000000000000e+00 
1.795344711143e+01 1.000000000000e+00 
1.827626378268e+01 1.000000000000e+00 
1.859585228716e+01 1.000000000000e+00 
1.891224490721e+01 1.000000000000e+00 
1.922547360320e+01 1.000000000000e+00 
1.953557001297e+01 1.000000000000e+00 
1.984256545841e+01 1.000000000000e+00 
2.014649094826e+01 1.000000000000e+00 
2.044737718114e+01 1.000000000000e+00 
2.074525455164e+01 1.000000000000e+00 
2.104015314978e+01 9.822564074091e-01 
2.133210276364e+01 9.177991625993e-01 
2.162113288213e+01 8.593631172372e-01 
2.190727269749e+01 8.102449022513e-01 
2.219055111465e+01 7.693597077148e-01 
2.247099675018e+01 7.350558171147e-01 
2.274863792808e+01 7.059178131310e-01 
2.302350269226e+01 6.808538742188e-01 
2.329561880873e+01 6.590411569520e-01 
2.356501376456e+01 6.398585825978e-01 
2.383171476996e+01 6.228325619485e-01 
2.409574876737e+01 6.075972187363e-01 
2.435714242639e+01 5.938660109896e-01 
2.461592214625e+01 5.814115384025e-01 
2.487211406765e+01 5.700510740400e-01 
2.512574407129e+01 5.596360839938e-01 
2.537683777640e+01 5.500445398352e-01 
2.562542054256e+01 5.411752067533e-01 
2.587151748159e+01 5.329433457315e-01 
2.611515345238e+01 5.252774413206e-01 
2.635635306271e+01 5.181166810584e-01 
2.659514067751e+01 5.114089929778e-01 
2.683154041702e+01 5.051095026461e-01 
2.706557615834e+01 4.991793083099e-01 
2.729727154026e+01 4.935844999979e-01 
2.752664996800e+01 4.882953676048e-01 
2.775373461120e+01 4.832857567717e-01 
2.797854840863e+01 4.785325409385e-01 
2.820111406940e+01 4.740151858912e-01 
2.842145407423e+01 4.697153882603e-01 
2.863959067996e+01 4.656167735681e-01 
2.885554591724e+01 4.617046427781e-01 
2.906934160231e+01 4.579657580796e-01 
2.928099933335e+01 4.543881614116e-01 
2.949054048608e+01 4.509610197743e-01 
2.969798622754e+01 4.476744924967e-01 
2.990335751034e+01 4.445196174155e-01 
3.010667508036e+01 4.414882124131e-01 
3.030795947741e+01 4.385727902023e-01 
3.050723102941e+01 4.357664843042e-01 
3.070450986321e+01 4.330629842240e-01 
3.089981590866e+01 4.304564787890e-01 
3.109316889580e+01 4.279416064735e-01 
3.128458835220e+01 4.255134116362e-01 
3.147409361367e+01 4.231673056961e-01 
3.166170382127e+01 4.208990329079e-01 
3.184743792559e+01 4.187046398800e-01 
3.203131468986e+01 4.165804484484e-01 
3.221335268768e+01 4.145230315278e-01 
3.239357030641e+01 4.125291914449e-01 
3.257198574766e+01 4.105959405467e-01 
3.274861703431e+01 4.087204837072e-01 
3.292348200723e+01 4.069002026872e-01 
3.309659832956e+01 4.051326419469e-01 
3.326798348904e+01 4.034154958444e-01 
3.343765479937e+01 4.017465970532e-01 
3.360562939632e+01 4.001239061076e-01 
3.377192424487e+01 3.985455017980e-01 
3.393655614579e+01 3.970095724361e-01 
3.409954172902e+01 3.955144080137e-01 
3.426089745701e+01 3.940583929531e-01 
3.442063962808e+01 3.926399994795e-01 
3.457878437631e+01 3.912577815819e-01 
3.473534767486e+01 3.899103694471e-01 
3.489034534246e+01 3.885964643221e-01 
3.504379303310e+01 3.873148339306e-01 
3.519570624634e+01 3.860643080842e-01 
3.534610032966e+01 3.848437747020e-01 
3.549499047221e+01 3.836521762063e-01 
3.564239171422e+01 3.824885060686e-01 
3.578831894341e+01 3.813518057174e-01 
3.593278689801e+01 3.802411616222e-01 
3.607581017308e+01 3.791557025681e-01 
3.621740321667e+01 3.780945972006e-01 
3.635758032943e+01 3.770570517213e-01 
3.649635567091e+01 3.760423076955e-01 
3.663374325892e+01 3.750496400627e-01 
3.676975696914e+01 3.740783552808e-01 
3.690441054120e+01 3.731277895510e-01 
3.703771757811e+01 3.721973072073e-01 
3.716969154561e+01 3.712862992120e-01 
3.730034577491e+01 3.703941817278e-01 
3.742969346205e+01 3.695203948034e-01 
3.755774767053e+01 3.686644011210e-01 
3.768452133736e+01 3.678256848011e-01 
3.781002726882e+01 3.670037503475e-01 
3.793427813982e+01 3.661981216351e-01 
3.805728650313e+01 3.654083408952e-01 
3.817906478515e+01 3.646339678476e-01 
3.829962528172e+01 3.638745788838e-01 
3.841898017080e+01 3.631297661937e-01 
3.853714151137e+01 3.623991370277e-01 
3.865412123927e+01 3.616823130202e-01 
3.876993116952e+01 3.609789295118e-01 
3.888458300218e+01 3.602886348897e-01 
3.899808831784e+01 3.596110900254e-01 
3.911045858010e+01 3.589459677027e-01 
3.922170514117e+01 3.582929520590e-01 
3.933183923406e+01 3.576517381337e-01 
3.944087198509e+01 3.570220313257e-01 
3.954881440913e+01 3.564035469756e-01 
3.965567740871e+01 3.557960099505e-01 
3.976147177944e+01 3.551991542131e-01 
3.986620820551e+01 3.546127224695e-01 
3.996989726862e+01 3.540364657601e-01 
4.007254944325e+01 3.534701431459e-01 
4.017417509557e+01 3.529135213919e-01 
4.027478448882e+01 3.523663746297e-01 
4.037438778880e+01 3.518284840369e-01 
4.047299505568e+01 3.512996376051e-01 
4.057061624961e+01 3.507796298457e-01 
4.066726123252e+01 3.502682615300e-01 
4.076293976355e+01 3.497653394752e-01 
4.085766151103e+01 3.492706762535e-01 
4.095143604094e+01 3.487840900374e-01 
4.104427282570e+01 3.483054043473e-01 
4.113618124255e+01 3.478344478634e-01 
4.122717057225e+01 3.473710542450e-01 
4.131725001094e+01 3.469150618918e-01 
4.140642865511e+01 3.464663138494e-01 
4.149471551037e+01 3.460246576019e-01 
4.158211949983e+01 3.455899448752e-01 
4.166864944907e+01 3.451620315626e-01 
4.175431409817e+01 3.447407775238e-01 
4.183912210329e+01 3.443260464409e-01 
4.192308202844e+01 3.439177057295e-01 
4.200620235391e+01 3.435156263726e-01 
4.208849147464e+01 3.431196828104e-01 
4.216995770525e+01 3.427297528019e-01 
4.225060927494e+01 3.423457173410e-01 
4.233045432588e+01 3.419674605589e-01 
4.240950092496e+01 3.415948695691e-01 
4.248775705857e+01 3.412278343958e-01 
4.256523063092e+01 3.408662478906e-01 
4.264192946901e+01 3.405100056204e-01 
4.271786132079e+01 3.401590057921e-01 
4.279303385342e+01 3.398131491792e-01 
4.286745465820e+01 3.394723390208e-01 
4.294113125542e+01 3.391364809250e-01 
4.301407108912e+01 3.388054828217e-01 
4.308628152526e+01 3.384792549011e-01 
4.315776985661e+01 3.381577095258e-01 
4.322854330419e+01 3.378407611603e-01 
4.329860901535e+01 3.375283263184e-01 
4.336797406865e+01 3.372203234832e-01 
4.343664547178e+01 3.369166730589e-01 
4.350463015975e+01 3.366172973253e-01 
4.357193500295e+01 3.363221203491e-01 
4.363856679839e+01 3.360310679724e-01 
4.370453227461e+01 3.357440677425e-01 
4.376983809623e+01 3.354610488454e-01 
4.383449085865e+01 3.351819420835e-01 
4.389849709276e+01 3.349066798124e-01 
4.396186326620e+01 3.346351958933e-01 
4.402459577792e+01 3.343674256763e-01 
4.408670096296e+01 3.341033059413e-01 
4.414818509696e+01 3.338427748405e-01 
4.420905439077e+01 3.335857718867e-01 
4.426931499167e+01 3.333322379119e-01 
4.432897298464e+01 3.330821150291e-01 
4.438803439697e+01 3.328353465805e-01 
4.444650519603e+01 3.325918771154e-01 
4.450439128717e+01 3.323516523690e-01 
4.456169851830e+01 3.321146192141e-01 
4.461843267761e+01 3.318807256426e-01 
4.467459949486e+01 3.316499207325e-01 
4.473020464583e+01 3.314221546041e-01 
4.478525374670e+01 3.311973784171e-01 
4.483975235530e+01 3.309755443414e-01 
4.489370597550e+01 3.307566055150e-01 
4.494712005841e+01 3.305405160166e-01 
4.500000000000e+01 3.303272304827e-01 
