 TITLE = "Profiles along polylines"
 VARIABLES = "DIST" "SATURATION1" 
 ZONE T="TIME=0.000000000000e+00"
0.000000000000e+00 1.000000000000e+00 
0.000000000000e+00 1.000000000000e+00 
5.023511443667e-01 1.000000000000e+00 
5.023511443667e-01 1.000000000000e+00 
9.996787804678e-01 1.000000000000e+00 
9.996787804678e-01 1.000000000000e+00 
1.492033141008e+00 1.000000000000e+00 
1.492033141008e+00 1.000000000000e+00 
1.979463956085e+00 1.000000000000e+00 
1.979463956085e+00 1.000000000000e+00 
2.462020463241e+00 1.000000000000e+00 
2.462020463241e+00 1.000000000000e+00 
2.939751407203e+00 1.000000000000e+00 
2.939751407203e+00 1.000000000000e+00 
3.412705039729e+00 1.000000000000e+00 
3.412705039729e+00 1.000000000000e+00 
3.880929132699e+00 1.000000000000e+00 
3.880929132699e+00 1.000000000000e+00 
4.344470984477e+00 1.000000000000e+00 
4.344470984477e+00 1.000000000000e+00 
4.803377419061e+00 1.000000000000e+00 
4.803377419061e+00 1.000000000000e+00 
5.257694789126e+00 1.000000000000e+00 
5.257694789126e+00 1.000000000000e+00 
5.707468985260e+00 1.000000000000e+00 
5.707468985260e+00 1.000000000000e+00 
6.152745441858e+00 1.000000000000e+00 
6.152745441858e+00 1.000000000000e+00 
6.593569132803e+00 1.000000000000e+00 
6.593569132803e+00 1.000000000000e+00 
7.029984584063e+00 1.000000000000e+00 
7.029984584063e+00 1.000000000000e+00 
7.462035882509e+00 1.000000000000e+00 
7.462035882509e+00 1.000000000000e+00 
7.889766668024e+00 1.000000000000e+00 
7.889766668024e+00 1.000000000000e+00 
8.313220145764e+00 1.000000000000e+00 
8.313220145764e+00 1.000000000000e+00 
8.732439091408e+00 1.000000000000e+00 
8.732439091408e+00 1.000000000000e+00 
9.147465846375e+00 1.000000000000e+00 
9.147465846375e+00 1.000000000000e+00 
9.558342333195e+00 1.000000000000e+00 
9.558342333195e+00 1.000000000000e+00 
9.965110057073e+00 1.000000000000e+00 
9.965110057073e+00 1.000000000000e+00 
1.036781010429e+01 1.000000000000e+00 
1.036781010429e+01 1.000000000000e+00 
1.076648315045e+01 1.000000000000e+00 
1.076648315045e+01 1.000000000000e+00 
1.116116946540e+01 1.000000000000e+00 
1.116116946540e+01 1.000000000000e+00 
1.155190891787e+01 1.000000000000e+00 
1.155190891787e+01 1.000000000000e+00 
1.193874097353e+01 1.000000000000e+00 
1.193874097353e+01 1.000000000000e+00 
1.232170470634e+01 1.000000000000e+00 
1.232170470634e+01 1.000000000000e+00 
1.270083880294e+01 1.000000000000e+00 
1.270083880294e+01 1.000000000000e+00 
1.307618156046e+01 1.000000000000e+00 
1.307618156046e+01 1.000000000000e+00 
1.344777089085e+01 1.000000000000e+00 
1.344777089085e+01 1.000000000000e+00 
1.381564432860e+01 1.000000000000e+00 
1.381564432860e+01 1.000000000000e+00 
1.417983903150e+01 1.000000000000e+00 
1.417983903150e+01 1.000000000000e+00 
1.454039178488e+01 1.000000000000e+00 
1.454039178488e+01 1.000000000000e+00 
1.489733901232e+01 1.000000000000e+00 
1.489733901232e+01 1.000000000000e+00 
1.525071676951e+01 1.000000000000e+00 
1.525071676951e+01 1.000000000000e+00 
1.560056074825e+01 1.000000000000e+00 
1.560056074825e+01 1.000000000000e+00 
1.594690628703e+01 1.000000000000e+00 
1.594690628703e+01 1.000000000000e+00 
1.628978837134e+01 1.000000000000e+00 
1.628978837134e+01 1.000000000000e+00 
1.662924163406e+01 1.000000000000e+00 
1.662924163406e+01 1.000000000000e+00 
1.696530036249e+01 1.000000000000e+00 
1.696530036249e+01 1.000000000000e+00 
1.729799850523e+01 1.000000000000e+00 
1.729799850523e+01 1.000000000000e+00 
1.762736966548e+01 1.000000000000e+00 
1.762736966548e+01 1.000000000000e+00 
1.795344711143e+01 1.000000000000e+00 
1.795344711143e+01 1.000000000000e+00 
1.827626378268e+01 1.000000000000e+00 
1.827626378268e+01 1.000000000000e+00 
1.859585228716e+01 1.000000000000e+00 
1.859585228716e+01 1.000000000000e+00 
1.891224490721e+01 1.000000000000e+00 
1.891224490721e+01 1.000000000000e+00 
1.922547360320e+01 1.000000000000e+00 
1.922547360320e+01 1.000000000000e+00 
1.953557001297e+01 1.000000000000e+00 
1.953557001297e+01 1.000000000000e+00 
1.984256545841e+01 1.000000000000e+00 
1.984256545841e+01 1.000000000000e+00 
2.014649094826e+01 1.000000000000e+00 
2.014649094826e+01 1.000000000000e+00 
2.044737718114e+01 1.000000000000e+00 
2.044737718114e+01 1.000000000000e+00 
2.074525455164e+01 1.000000000000e+00 
2.074525455164e+01 1.000000000000e+00 
2.104015314978e+01 1.000000000000e+00 
2.104015314978e+01 1.000000000000e+00 
2.133210276364e+01 1.000000000000e+00 
2.133210276364e+01 1.000000000000e+00 
2.162113288213e+01 1.000000000000e+00 
2.162113288213e+01 1.000000000000e+00 
2.190727269749e+01 1.000000000000e+00 
2.190727269749e+01 1.000000000000e+00 
2.219055111465e+01 1.000000000000e+00 
2.219055111465e+01 1.000000000000e+00 
2.247099675018e+01 1.000000000000e+00 
2.247099675018e+01 1.000000000000e+00 
2.274863792808e+01 1.000000000000e+00 
2.274863792808e+01 1.000000000000e+00 
2.302350269226e+01 1.000000000000e+00 
2.302350269226e+01 1.000000000000e+00 
2.329561880873e+01 1.000000000000e+00 
2.329561880873e+01 1.000000000000e+00 
2.356501376456e+01 1.000000000000e+00 
2.356501376456e+01 1.000000000000e+00 
2.383171476996e+01 1.000000000000e+00 
2.383171476996e+01 1.000000000000e+00 
2.409574876737e+01 1.000000000000e+00 
2.409574876737e+01 1.000000000000e+00 
2.435714242639e+01 1.000000000000e+00 
2.435714242639e+01 1.000000000000e+00 
2.461592214625e+01 1.000000000000e+00 
2.461592214625e+01 1.000000000000e+00 
2.487211406765e+01 1.000000000000e+00 
2.487211406765e+01 1.000000000000e+00 
2.512574407129e+01 1.000000000000e+00 
2.512574407129e+01 1.000000000000e+00 
2.537683777640e+01 1.000000000000e+00 
2.537683777640e+01 1.000000000000e+00 
2.562542054256e+01 1.000000000000e+00 
2.562542054256e+01 1.000000000000e+00 
2.587151748159e+01 1.000000000000e+00 
2.587151748159e+01 1.000000000000e+00 
2.611515345238e+01 1.000000000000e+00 
2.611515345238e+01 1.000000000000e+00 
2.635635306271e+01 1.000000000000e+00 
2.635635306271e+01 1.000000000000e+00 
2.659514067751e+01 1.000000000000e+00 
2.659514067751e+01 1.000000000000e+00 
2.683154041702e+01 1.000000000000e+00 
2.683154041702e+01 1.000000000000e+00 
2.706557615834e+01 1.000000000000e+00 
2.706557615834e+01 1.000000000000e+00 
2.729727154026e+01 1.000000000000e+00 
2.729727154026e+01 1.000000000000e+00 
2.752664996800e+01 1.000000000000e+00 
2.752664996800e+01 1.000000000000e+00 
2.775373461120e+01 1.000000000000e+00 
2.775373461120e+01 1.000000000000e+00 
2.797854840863e+01 1.000000000000e+00 
2.797854840863e+01 1.000000000000e+00 
2.820111406940e+01 1.000000000000e+00 
2.820111406940e+01 1.000000000000e+00 
2.842145407423e+01 1.000000000000e+00 
2.842145407423e+01 1.000000000000e+00 
2.863959067996e+01 1.000000000000e+00 
2.863959067996e+01 1.000000000000e+00 
2.885554591724e+01 1.000000000000e+00 
2.885554591724e+01 1.000000000000e+00 
2.906934160231e+01 1.000000000000e+00 
2.906934160231e+01 1.000000000000e+00 
2.928099933335e+01 1.000000000000e+00 
2.928099933335e+01 1.000000000000e+00 
2.949054048608e+01 1.000000000000e+00 
2.949054048608e+01 1.000000000000e+00 
2.969798622754e+01 1.000000000000e+00 
2.969798622754e+01 1.000000000000e+00 
2.990335751034e+01 1.000000000000e+00 
2.990335751034e+01 1.000000000000e+00 
3.010667508036e+01 1.000000000000e+00 
3.010667508036e+01 1.000000000000e+00 
3.030795947741e+01 1.000000000000e+00 
3.030795947741e+01 1.000000000000e+00 
3.050723102941e+01 1.000000000000e+00 
3.050723102941e+01 1.000000000000e+00 
3.070450986321e+01 1.000000000000e+00 
3.070450986321e+01 1.000000000000e+00 
3.089981590866e+01 1.000000000000e+00 
3.089981590866e+01 1.000000000000e+00 
3.109316889580e+01 1.000000000000e+00 
3.109316889580e+01 1.000000000000e+00 
3.128458835220e+01 1.000000000000e+00 
3.128458835220e+01 1.000000000000e+00 
3.147409361367e+01 1.000000000000e+00 
3.147409361367e+01 1.000000000000e+00 
3.166170382127e+01 1.000000000000e+00 
3.166170382127e+01 1.000000000000e+00 
3.184743792559e+01 1.000000000000e+00 
3.184743792559e+01 1.000000000000e+00 
3.203131468986e+01 1.000000000000e+00 
3.203131468986e+01 1.000000000000e+00 
3.221335268768e+01 1.000000000000e+00 
3.221335268768e+01 1.000000000000e+00 
3.239357030641e+01 1.000000000000e+00 
3.239357030641e+01 1.000000000000e+00 
3.257198574766e+01 1.000000000000e+00 
3.257198574766e+01 1.000000000000e+00 
3.274861703431e+01 1.000000000000e+00 
3.274861703431e+01 1.000000000000e+00 
3.292348200723e+01 1.000000000000e+00 
3.292348200723e+01 1.000000000000e+00 
3.309659832956e+01 1.000000000000e+00 
3.309659832956e+01 1.000000000000e+00 
3.326798348904e+01 1.000000000000e+00 
3.326798348904e+01 1.000000000000e+00 
3.343765479937e+01 1.000000000000e+00 
3.343765479937e+01 1.000000000000e+00 
3.360562939632e+01 1.000000000000e+00 
3.360562939632e+01 1.000000000000e+00 
3.377192424487e+01 1.000000000000e+00 
3.377192424487e+01 1.000000000000e+00 
3.393655614579e+01 1.000000000000e+00 
3.393655614579e+01 1.000000000000e+00 
3.409954172902e+01 1.000000000000e+00 
3.409954172902e+01 1.000000000000e+00 
3.426089745701e+01 1.000000000000e+00 
3.426089745701e+01 1.000000000000e+00 
3.442063962808e+01 1.000000000000e+00 
3.442063962808e+01 1.000000000000e+00 
3.457878437631e+01 1.000000000000e+00 
3.457878437631e+01 1.000000000000e+00 
3.473534767486e+01 1.000000000000e+00 
3.473534767486e+01 1.000000000000e+00 
3.489034534246e+01 1.000000000000e+00 
3.489034534246e+01 1.000000000000e+00 
3.504379303310e+01 1.000000000000e+00 
3.504379303310e+01 1.000000000000e+00 
3.519570624634e+01 1.000000000000e+00 
3.519570624634e+01 1.000000000000e+00 
3.534610032966e+01 1.000000000000e+00 
3.534610032966e+01 1.000000000000e+00 
3.549499047221e+01 1.000000000000e+00 
3.549499047221e+01 1.000000000000e+00 
3.564239171422e+01 1.000000000000e+00 
3.564239171422e+01 1.000000000000e+00 
3.578831894341e+01 1.000000000000e+00 
3.578831894341e+01 1.000000000000e+00 
3.593278689801e+01 1.000000000000e+00 
3.593278689801e+01 1.000000000000e+00 
3.607581017308e+01 1.000000000000e+00 
3.607581017308e+01 1.000000000000e+00 
3.621740321667e+01 1.000000000000e+00 
3.621740321667e+01 1.000000000000e+00 
3.635758032943e+01 1.000000000000e+00 
3.635758032943e+01 1.000000000000e+00 
3.649635567091e+01 1.000000000000e+00 
3.649635567091e+01 1.000000000000e+00 
3.663374325892e+01 1.000000000000e+00 
3.663374325892e+01 1.000000000000e+00 
3.676975696914e+01 1.000000000000e+00 
3.676975696914e+01 1.000000000000e+00 
3.690441054120e+01 1.000000000000e+00 
3.690441054120e+01 1.000000000000e+00 
3.703771757811e+01 1.000000000000e+00 
3.703771757811e+01 1.000000000000e+00 
3.716969154561e+01 1.000000000000e+00 
3.716969154561e+01 1.000000000000e+00 
3.730034577491e+01 1.000000000000e+00 
3.730034577491e+01 1.000000000000e+00 
3.742969346205e+01 1.000000000000e+00 
3.742969346205e+01 1.000000000000e+00 
3.755774767053e+01 1.000000000000e+00 
3.755774767053e+01 1.000000000000e+00 
3.768452133736e+01 1.000000000000e+00 
3.768452133736e+01 1.000000000000e+00 
3.781002726882e+01 1.000000000000e+00 
3.781002726882e+01 1.000000000000e+00 
3.793427813982e+01 1.000000000000e+00 
3.793427813982e+01 1.000000000000e+00 
3.805728650313e+01 1.000000000000e+00 
3.805728650313e+01 1.000000000000e+00 
3.817906478515e+01 1.000000000000e+00 
3.817906478515e+01 1.000000000000e+00 
3.829962528172e+01 1.000000000000e+00 
3.829962528172e+01 1.000000000000e+00 
3.841898017080e+01 1.000000000000e+00 
3.841898017080e+01 1.000000000000e+00 
3.853714151137e+01 1.000000000000e+00 
3.853714151137e+01 1.000000000000e+00 
3.865412123927e+01 1.000000000000e+00 
3.865412123927e+01 1.000000000000e+00 
3.876993116952e+01 1.000000000000e+00 
3.876993116952e+01 1.000000000000e+00 
3.888458300218e+01 1.000000000000e+00 
3.888458300218e+01 1.000000000000e+00 
3.899808831784e+01 1.000000000000e+00 
3.899808831784e+01 1.000000000000e+00 
3.911045858010e+01 1.000000000000e+00 
3.911045858010e+01 1.000000000000e+00 
3.922170514117e+01 1.000000000000e+00 
3.922170514117e+01 1.000000000000e+00 
3.933183923406e+01 1.000000000000e+00 
3.933183923406e+01 1.000000000000e+00 
3.944087198509e+01 1.000000000000e+00 
3.944087198509e+01 1.000000000000e+00 
3.954881440913e+01 1.000000000000e+00 
3.954881440913e+01 1.000000000000e+00 
3.965567740871e+01 1.000000000000e+00 
3.965567740871e+01 1.000000000000e+00 
3.976147177944e+01 1.000000000000e+00 
3.976147177944e+01 1.000000000000e+00 
3.986620820551e+01 1.000000000000e+00 
3.986620820551e+01 1.000000000000e+00 
3.996989726862e+01 1.000000000000e+00 
3.996989726862e+01 1.000000000000e+00 
4.007254944325e+01 1.000000000000e+00 
4.007254944325e+01 1.000000000000e+00 
4.017417509557e+01 1.000000000000e+00 
4.017417509557e+01 1.000000000000e+00 
4.027478448882e+01 1.000000000000e+00 
4.027478448882e+01 1.000000000000e+00 
4.037438778880e+01 1.000000000000e+00 
4.037438778880e+01 1.000000000000e+00 
4.047299505568e+01 1.000000000000e+00 
4.047299505568e+01 1.000000000000e+00 
4.057061624961e+01 1.000000000000e+00 
4.057061624961e+01 1.000000000000e+00 
4.066726123252e+01 1.000000000000e+00 
4.066726123252e+01 1.000000000000e+00 
4.076293976355e+01 1.000000000000e+00 
4.076293976355e+01 1.000000000000e+00 
4.085766151103e+01 1.000000000000e+00 
4.085766151103e+01 1.000000000000e+00 
4.095143604094e+01 1.000000000000e+00 
4.095143604094e+01 1.000000000000e+00 
4.104427282570e+01 1.000000000000e+00 
4.104427282570e+01 1.000000000000e+00 
4.113618124255e+01 1.000000000000e+00 
4.113618124255e+01 1.000000000000e+00 
4.122717057225e+01 1.000000000000e+00 
4.122717057225e+01 1.000000000000e+00 
4.131725001094e+01 1.000000000000e+00 
4.131725001094e+01 1.000000000000e+00 
4.140642865511e+01 1.000000000000e+00 
4.140642865511e+01 1.000000000000e+00 
4.149471551037e+01 1.000000000000e+00 
4.149471551037e+01 1.000000000000e+00 
4.158211949983e+01 1.000000000000e+00 
4.158211949983e+01 1.000000000000e+00 
4.166864944907e+01 1.000000000000e+00 
4.166864944907e+01 1.000000000000e+00 
4.175431409817e+01 1.000000000000e+00 
4.175431409817e+01 1.000000000000e+00 
4.183912210329e+01 1.000000000000e+00 
4.183912210329e+01 1.000000000000e+00 
4.192308202844e+01 1.000000000000e+00 
4.192308202844e+01 1.000000000000e+00 
4.200620235391e+01 1.000000000000e+00 
4.200620235391e+01 1.000000000000e+00 
4.208849147464e+01 1.000000000000e+00 
4.208849147464e+01 1.000000000000e+00 
4.216995770525e+01 1.000000000000e+00 
4.216995770525e+01 1.000000000000e+00 
4.225060927494e+01 1.000000000000e+00 
4.225060927494e+01 1.000000000000e+00 
4.233045432588e+01 1.000000000000e+00 
4.233045432588e+01 1.000000000000e+00 
4.240950092496e+01 1.000000000000e+00 
4.240950092496e+01 1.000000000000e+00 
4.248775705857e+01 1.000000000000e+00 
4.248775705857e+01 1.000000000000e+00 
4.256523063092e+01 1.000000000000e+00 
4.256523063092e+01 1.000000000000e+00 
4.264192946901e+01 1.000000000000e+00 
4.264192946901e+01 1.000000000000e+00 
4.271786132079e+01 1.000000000000e+00 
4.271786132079e+01 1.000000000000e+00 
4.279303385342e+01 1.000000000000e+00 
4.279303385342e+01 1.000000000000e+00 
4.286745465820e+01 1.000000000000e+00 
4.286745465820e+01 1.000000000000e+00 
4.294113125542e+01 1.000000000000e+00 
4.294113125542e+01 1.000000000000e+00 
4.301407108912e+01 1.000000000000e+00 
4.301407108912e+01 1.000000000000e+00 
4.308628152526e+01 1.000000000000e+00 
4.308628152526e+01 1.000000000000e+00 
4.315776985661e+01 1.000000000000e+00 
4.315776985661e+01 1.000000000000e+00 
4.322854330419e+01 1.000000000000e+00 
4.322854330419e+01 1.000000000000e+00 
4.329860901535e+01 1.000000000000e+00 
4.329860901535e+01 1.000000000000e+00 
4.336797406865e+01 1.000000000000e+00 
4.336797406865e+01 1.000000000000e+00 
4.343664547178e+01 1.000000000000e+00 
4.343664547178e+01 1.000000000000e+00 
4.350463015975e+01 1.000000000000e+00 
4.350463015975e+01 1.000000000000e+00 
4.357193500295e+01 1.000000000000e+00 
4.357193500295e+01 1.000000000000e+00 
4.363856679839e+01 1.000000000000e+00 
4.363856679839e+01 1.000000000000e+00 
4.370453227461e+01 1.000000000000e+00 
4.370453227461e+01 1.000000000000e+00 
4.376983809623e+01 1.000000000000e+00 
4.376983809623e+01 1.000000000000e+00 
4.383449085865e+01 1.000000000000e+00 
4.383449085865e+01 1.000000000000e+00 
4.389849709276e+01 1.000000000000e+00 
4.389849709276e+01 1.000000000000e+00 
4.396186326620e+01 1.000000000000e+00 
4.396186326620e+01 1.000000000000e+00 
4.402459577792e+01 1.000000000000e+00 
4.402459577792e+01 1.000000000000e+00 
4.408670096296e+01 1.000000000000e+00 
4.408670096296e+01 1.000000000000e+00 
4.414818509696e+01 1.000000000000e+00 
4.414818509696e+01 1.000000000000e+00 
4.420905439077e+01 1.000000000000e+00 
4.420905439077e+01 1.000000000000e+00 
4.426931499167e+01 1.000000000000e+00 
4.426931499167e+01 1.000000000000e+00 
4.432897298464e+01 1.000000000000e+00 
4.432897298464e+01 1.000000000000e+00 
4.438803439697e+01 1.000000000000e+00 
4.438803439697e+01 1.000000000000e+00 
4.444650519603e+01 1.000000000000e+00 
4.444650519603e+01 1.000000000000e+00 
4.450439128717e+01 1.000000000000e+00 
4.450439128717e+01 1.000000000000e+00 
4.456169851830e+01 1.000000000000e+00 
4.456169851830e+01 1.000000000000e+00 
4.461843267761e+01 1.000000000000e+00 
4.461843267761e+01 1.000000000000e+00 
4.467459949486e+01 1.000000000000e+00 
4.467459949486e+01 1.000000000000e+00 
4.473020464583e+01 1.000000000000e+00 
4.473020464583e+01 1.000000000000e+00 
4.478525374670e+01 1.000000000000e+00 
4.478525374670e+01 1.000000000000e+00 
4.483975235530e+01 1.000000000000e+00 
4.483975235530e+01 1.000000000000e+00 
4.489370597550e+01 1.000000000000e+00 
4.489370597550e+01 1.000000000000e+00 
4.494712005841e+01 1.000000000000e+00 
4.494712005841e+01 1.000000000000e+00 
4.500000000000e+01 1.000000000000e+00 
4.500000000000e+01 1.000000000000e+00 
 TITLE = "Profiles along polylines"
 VARIABLES = "DIST" "SATURATION1" 
 ZONE T="TIME=1.797693134862e+308"
0.000000000000e+00 1.000000000000e+00 
0.000000000000e+00 1.000000000000e+00 
5.023511443667e-01 1.000000000000e+00 
5.023511443667e-01 1.000000000000e+00 
9.996787804678e-01 1.000000000000e+00 
9.996787804678e-01 1.000000000000e+00 
1.492033141008e+00 1.000000000000e+00 
1.492033141008e+00 1.000000000000e+00 
1.979463956085e+00 1.000000000000e+00 
1.979463956085e+00 1.000000000000e+00 
2.462020463241e+00 1.000000000000e+00 
2.462020463241e+00 1.000000000000e+00 
2.939751407203e+00 1.000000000000e+00 
2.939751407203e+00 1.000000000000e+00 
3.412705039729e+00 1.000000000000e+00 
3.412705039729e+00 1.000000000000e+00 
3.880929132699e+00 1.000000000000e+00 
3.880929132699e+00 1.000000000000e+00 
4.344470984477e+00 1.000000000000e+00 
4.344470984477e+00 1.000000000000e+00 
4.803377419061e+00 1.000000000000e+00 
4.803377419061e+00 1.000000000000e+00 
5.257694789126e+00 1.000000000000e+00 
5.257694789126e+00 1.000000000000e+00 
5.707468985260e+00 1.000000000000e+00 
5.707468985260e+00 1.000000000000e+00 
6.152745441858e+00 1.000000000000e+00 
6.152745441858e+00 1.000000000000e+00 
6.593569132803e+00 1.000000000000e+00 
6.593569132803e+00 1.000000000000e+00 
7.029984584063e+00 1.000000000000e+00 
7.029984584063e+00 1.000000000000e+00 
7.462035882509e+00 1.000000000000e+00 
7.462035882509e+00 1.000000000000e+00 
7.889766668024e+00 1.000000000000e+00 
7.889766668024e+00 1.000000000000e+00 
8.313220145764e+00 1.000000000000e+00 
8.313220145764e+00 1.000000000000e+00 
8.732439091408e+00 1.000000000000e+00 
8.732439091408e+00 1.000000000000e+00 
9.147465846375e+00 1.000000000000e+00 
9.147465846375e+00 1.000000000000e+00 
9.558342333195e+00 1.000000000000e+00 
9.558342333195e+00 1.000000000000e+00 
9.965110057073e+00 1.000000000000e+00 
9.965110057073e+00 1.000000000000e+00 
1.036781010429e+01 1.000000000000e+00 
1.036781010429e+01 1.000000000000e+00 
1.076648315045e+01 1.000000000000e+00 
1.076648315045e+01 1.000000000000e+00 
1.116116946540e+01 1.000000000000e+00 
1.116116946540e+01 1.000000000000e+00 
1.155190891787e+01 1.000000000000e+00 
1.155190891787e+01 1.000000000000e+00 
1.193874097353e+01 1.000000000000e+00 
1.193874097353e+01 1.000000000000e+00 
1.232170470634e+01 1.000000000000e+00 
1.232170470634e+01 1.000000000000e+00 
1.270083880294e+01 1.000000000000e+00 
1.270083880294e+01 1.000000000000e+00 
1.307618156046e+01 1.000000000000e+00 
1.307618156046e+01 1.000000000000e+00 
1.344777089085e+01 1.000000000000e+00 
1.344777089085e+01 1.000000000000e+00 
1.381564432860e+01 1.000000000000e+00 
1.381564432860e+01 1.000000000000e+00 
1.417983903150e+01 1.000000000000e+00 
1.417983903150e+01 1.000000000000e+00 
1.454039178488e+01 1.000000000000e+00 
1.454039178488e+01 1.000000000000e+00 
1.489733901232e+01 1.000000000000e+00 
1.489733901232e+01 1.000000000000e+00 
1.525071676951e+01 1.000000000000e+00 
1.525071676951e+01 1.000000000000e+00 
1.560056074825e+01 1.000000000000e+00 
1.560056074825e+01 1.000000000000e+00 
1.594690628703e+01 1.000000000000e+00 
1.594690628703e+01 1.000000000000e+00 
1.628978837134e+01 1.000000000000e+00 
1.628978837134e+01 1.000000000000e+00 
1.662924163406e+01 1.000000000000e+00 
1.662924163406e+01 1.000000000000e+00 
1.696530036249e+01 1.000000000000e+00 
1.696530036249e+01 1.000000000000e+00 
1.729799850523e+01 1.000000000000e+00 
1.729799850523e+01 1.000000000000e+00 
1.762736966548e+01 1.000000000000e+00 
1.762736966548e+01 1.000000000000e+00 
1.795344711143e+01 1.000000000000e+00 
1.795344711143e+01 1.000000000000e+00 
1.827626378268e+01 1.000000000000e+00 
1.827626378268e+01 1.000000000000e+00 
1.859585228716e+01 1.000000000000e+00 
1.859585228716e+01 1.000000000000e+00 
1.891224490721e+01 1.000000000000e+00 
1.891224490721e+01 1.000000000000e+00 
1.922547360320e+01 1.000000000000e+00 
1.922547360320e+01 1.000000000000e+00 
1.953557001297e+01 1.000000000000e+00 
1.953557001297e+01 1.000000000000e+00 
1.984256545841e+01 1.000000000000e+00 
1.984256545841e+01 1.000000000000e+00 
2.014649094826e+01 1.000000000000e+00 
2.014649094826e+01 1.000000000000e+00 
2.044737718114e+01 1.000000000000e+00 
2.044737718114e+01 1.000000000000e+00 
2.074525455164e+01 1.000000000000e+00 
2.074525455164e+01 1.000000000000e+00 
2.104015314978e+01 1.000000000000e+00 
2.104015314978e+01 1.000000000000e+00 
2.133210276364e+01 1.000000000000e+00 
2.133210276364e+01 1.000000000000e+00 
2.162113288213e+01 1.000000000000e+00 
2.162113288213e+01 1.000000000000e+00 
2.190727269749e+01 1.000000000000e+00 
2.190727269749e+01 1.000000000000e+00 
2.219055111465e+01 1.000000000000e+00 
2.219055111465e+01 1.000000000000e+00 
2.247099675018e+01 9.715571086660e-01 
2.247099675018e+01 9.721406294253e-01 
2.274863792808e+01 9.102065746859e-01 
2.274863792808e+01 9.107760184161e-01 
2.302350269226e+01 8.554471011864e-01 
2.302350269226e+01 8.559407911768e-01 
2.329561880873e+01 8.091387522353e-01 
2.329561880873e+01 8.095572101978e-01 
2.356501376456e+01 7.702623871216e-01 
2.356501376456e+01 7.706181548650e-01 
2.383171476996e+01 7.373856922911e-01 
2.383171476996e+01 7.376912455815e-01 
2.409574876737e+01 7.092717157298e-01 
2.409574876737e+01 7.095372037943e-01 
2.435714242639e+01 6.849525317660e-01 
2.435714242639e+01 6.851858058755e-01 
2.461592214625e+01 6.636885741760e-01 
2.461592214625e+01 6.638956496911e-01 
2.487211406765e+01 6.449148591377e-01 
2.487211406765e+01 6.451003663564e-01 
2.512574407129e+01 6.281960998514e-01 
2.512574407129e+01 6.283636388403e-01 
2.537683777640e+01 6.131930279136e-01 
2.537683777640e+01 6.133454310551e-01 
2.562542054256e+01 5.996379165208e-01 
2.562542054256e+01 5.997774393817e-01 
2.587151748159e+01 5.873168993550e-01 
2.587151748159e+01 5.874453593475e-01 
2.611515345238e+01 5.760571420987e-01 
2.611515345238e+01 5.761760198824e-01 
2.635635306271e+01 5.657174487415e-01 
2.635635306271e+01 5.658279631070e-01 
2.659514067751e+01 5.561813068899e-01 
2.659514067751e+01 5.562844706747e-01 
2.683154041702e+01 5.473516791905e-01 
2.683154041702e+01 5.474483415096e-01 
2.706557615834e+01 5.391470565632e-01 
2.706557615834e+01 5.392379350627e-01 
2.729727154026e+01 5.314984337871e-01 
2.729727154026e+01 5.315841395469e-01 
2.752664996800e+01 5.243469670272e-01 
2.752664996800e+01 5.244280239853e-01 
2.775373461120e+01 5.176421412508e-01 
2.775373461120e+01 5.177190015028e-01 
2.797854840863e+01 5.113403224539e-01 
2.797854840863e+01 5.114133784150e-01 
2.820111406940e+01 5.054036038660e-01 
2.820111406940e+01 5.054731980208e-01 
2.842145407423e+01 4.997988786024e-01 
2.842145407423e+01 4.998653113855e-01 
2.863959067996e+01 4.944970883600e-01 
2.863959067996e+01 4.945606245730e-01 
2.885554591724e+01 4.894726104510e-01 
2.885554591724e+01 4.895334845258e-01 
2.906934160231e+01 4.847027537798e-01 
2.906934160231e+01 4.847611741236e-01 
2.928099933335e+01 4.801673422989e-01 
2.928099933335e+01 4.802234949043e-01 
2.949054048608e+01 4.759024198321e-01 
2.949054048608e+01 4.758483683701e-01 
2.969798622754e+01 4.717818023198e-01 
2.969798622754e+01 4.717297022680e-01 
2.990335751034e+01 4.677968480964e-01 
2.990335751034e+01 4.678471317507e-01 
3.010667508036e+01 4.640367370696e-01 
3.010667508036e+01 4.640853264373e-01 
3.030795947741e+01 4.604375519388e-01 
3.030795947741e+01 4.604845577803e-01 
3.050723102941e+01 4.569885771817e-01 
3.050723102941e+01 4.570341002355e-01 
3.070450986321e+01 4.536800702475e-01 
3.070450986321e+01 4.537242023735e-01 
3.089981590866e+01 4.505031507986e-01 
3.089981590866e+01 4.505459759657e-01 
3.109316889580e+01 4.474497050691e-01 
3.109316889580e+01 4.474913002118e-01 
3.128458835220e+01 4.445123028706e-01 
3.128458835220e+01 4.445527386339e-01 
3.147409361367e+01 4.416841251244e-01 
3.147409361367e+01 4.417234665147e-01 
3.166170382127e+01 4.389589007461e-01 
3.166170382127e+01 4.389972077010e-01 
3.184743792559e+01 4.363308512200e-01 
3.184743792559e+01 4.363681791095e-01 
3.203131468986e+01 4.337946418848e-01 
3.203131468986e+01 4.338310419529e-01 
3.221335268768e+01 4.313453390513e-01 
3.221335268768e+01 4.313808588061e-01 
3.239357030641e+01 4.289783720059e-01 
3.239357030641e+01 4.290130555659e-01 
3.257198574766e+01 4.266894993616e-01 
3.257198574766e+01 4.267233877629e-01 
3.274861703431e+01 4.244747790636e-01 
3.274861703431e+01 4.245079105340e-01 
3.292348200723e+01 4.223305417886e-01 
3.292348200723e+01 4.223629519921e-01 
3.309659832956e+01 4.202533670934e-01 
3.309659832956e+01 4.202850893493e-01 
3.326798348904e+01 4.182400620846e-01 
3.326798348904e+01 4.182711275639e-01 
3.343765479937e+01 4.162876422938e-01 
3.343765479937e+01 4.163180801956e-01 
3.360562939632e+01 4.143933145392e-01 
3.360562939632e+01 4.144231522504e-01 
3.377192424487e+01 4.125544613659e-01 
3.377192424487e+01 4.125837246040e-01 
3.393655614579e+01 4.107686270059e-01 
3.393655614579e+01 4.107973399495e-01 
3.409954172902e+01 4.090335048224e-01 
3.409954172902e+01 4.090616902288e-01 
3.426089745701e+01 4.073469258296e-01 
3.426089745701e+01 4.073746051413e-01 
3.442063962808e+01 4.057068482731e-01 
3.442063962808e+01 4.057340417151e-01 
3.457878437631e+01 4.041113481931e-01 
3.457878437631e+01 4.041380748615e-01 
3.473534767486e+01 4.025586107971e-01 
3.473534767486e+01 4.025848887394e-01 
3.489034534246e+01 4.010469225606e-01 
3.489034534246e+01 4.010727688497e-01 
3.504379303310e+01 3.995746641738e-01 
3.504379303310e+01 3.996000949753e-01 
3.519570624634e+01 3.981403038934e-01 
3.519570624634e+01 3.981653345276e-01 
3.534610032966e+01 3.967423915274e-01 
3.534610032966e+01 3.967670365254e-01 
3.549499047221e+01 3.953795529957e-01 
3.549499047221e+01 3.954038261521e-01 
3.564239171422e+01 3.940504851920e-01 
3.564239171422e+01 3.940743996127e-01 
3.578831894341e+01 3.927539513746e-01 
3.578831894341e+01 3.927775195206e-01 
3.593278689801e+01 3.914887768620e-01 
3.593278689801e+01 3.915120105903e-01 
3.607581017308e+01 3.902538450376e-01 
3.607581017308e+01 3.902767556390e-01 
3.621740321667e+01 3.890480937467e-01 
3.621740321667e+01 3.890706919802e-01 
3.635758032943e+01 3.878705119377e-01 
3.635758032943e+01 3.878928080629e-01 
3.649635567091e+01 3.867201364996e-01 
3.649635567091e+01 3.867421403064e-01 
3.663374325892e+01 3.855960493883e-01 
3.663374325892e+01 3.856177702244e-01 
3.676975696914e+01 3.844973749611e-01 
3.676975696914e+01 3.845188217580e-01 
3.690441054120e+01 3.834232774505e-01 
3.690441054120e+01 3.834444587471e-01 
3.703771757811e+01 3.823729586697e-01 
3.703771757811e+01 3.823938826345e-01 
3.716969154561e+01 3.813456558784e-01 
3.716969154561e+01 3.813663303304e-01 
3.730034577491e+01 3.803406397710e-01 
3.730034577491e+01 3.803610721986e-01 
3.742969346205e+01 3.793572126272e-01 
3.742969346205e+01 3.793774102066e-01 
3.755774767053e+01 3.783947065623e-01 
3.755774767053e+01 3.784146761738e-01 
3.768452133736e+01 3.774524818695e-01 
3.768452133736e+01 3.774722301136e-01 
3.781002726882e+01 3.765299255453e-01 
3.781002726882e+01 3.765494587571e-01 
3.793427813982e+01 3.756264498862e-01 
3.793427813982e+01 3.756457741493e-01 
3.805728650313e+01 3.747414911029e-01 
3.805728650313e+01 3.747606122623e-01 
3.817906478515e+01 3.738745081196e-01 
3.817906478515e+01 3.738934317936e-01 
3.829962528172e+01 3.730249814468e-01 
3.829962528172e+01 3.730437130384e-01 
3.841898017080e+01 3.721924120080e-01 
3.841898017080e+01 3.722109567156e-01 
3.853714151137e+01 3.713763201321e-01 
3.853714151137e+01 3.713946829595e-01 
3.865412123927e+01 3.705762446286e-01 
3.865412123927e+01 3.705944303941e-01 
3.876993116952e+01 3.697917418734e-01 
3.876993116952e+01 3.698097552192e-01 
3.888458300218e+01 3.690223849266e-01 
3.888458300218e+01 3.690402303267e-01 
3.899808831784e+01 3.682677627693e-01 
3.899808831784e+01 3.682854445373e-01 
3.911045858010e+01 3.675274795392e-01 
3.911045858010e+01 3.675450018362e-01 
3.922170514117e+01 3.668011537907e-01 
3.922170514117e+01 3.668185206318e-01 
3.933183923406e+01 3.661056331432e-01 
3.933183923406e+01 3.660884178821e-01 
3.944087198509e+01 3.654059846923e-01 
3.944087198509e+01 3.653889172685e-01 
3.954881440913e+01 3.647023099421e-01 
3.954881440913e+01 3.647192331445e-01 
3.965567740871e+01 3.640282658808e-01 