 TITLE = "Profiles along polylines"
 VARIABLES = "DIST" "SATURATION1" 
 ZONE T="TIME=0.000000000000e+00"
0.000000000000e+00 1.000000000000e+00 
0.000000000000e+00 1.000000000000e+00 
4.618829203569e-01 1.000000000000e+00 
4.618829203569e-01 1.000000000000e+00 
9.191470120950e-01 1.000000000000e+00 
9.191470120950e-01 1.000000000000e+00 
1.371838465678e+00 1.000000000000e+00 
1.371838465678e+00 1.000000000000e+00 
1.820003006032e+00 1.000000000000e+00 
1.820003006032e+00 1.000000000000e+00 
2.263685898897e+00 1.000000000000e+00 
2.263685898897e+00 1.000000000000e+00 
2.702931962895e+00 1.000000000000e+00 
2.702931962895e+00 1.000000000000e+00 
3.137785566562e+00 1.000000000000e+00 
3.137785566562e+00 1.000000000000e+00 
3.568290634397e+00 1.000000000000e+00 
3.568290634397e+00 1.000000000000e+00 
3.994490652667e+00 1.000000000000e+00 
3.994490652667e+00 1.000000000000e+00 
4.416428669260e+00 1.000000000000e+00 
4.416428669260e+00 1.000000000000e+00 
4.834147305392e+00 1.000000000000e+00 
4.834147305392e+00 1.000000000000e+00 
5.247688755142e+00 1.000000000000e+00 
5.247688755142e+00 1.000000000000e+00 
5.657094791088e+00 1.000000000000e+00 
5.657094791088e+00 1.000000000000e+00 
6.062406766640e+00 1.000000000000e+00 
6.062406766640e+00 1.000000000000e+00 
6.463665621544e+00 1.000000000000e+00 
6.463665621544e+00 1.000000000000e+00 
6.860911890009e+00 1.000000000000e+00 
6.860911890009e+00 1.000000000000e+00 
7.254185696981e+00 1.000000000000e+00 
7.254185696981e+00 1.000000000000e+00 
7.643526763267e+00 1.000000000000e+00 
7.643526763267e+00 1.000000000000e+00 
8.028974416599e+00 1.000000000000e+00 
8.028974416599e+00 1.000000000000e+00 
8.410567593464e+00 1.000000000000e+00 
8.410567593464e+00 1.000000000000e+00 
8.788344838065e+00 1.000000000000e+00 
8.788344838065e+00 1.000000000000e+00 
9.162344310086e+00 1.000000000000e+00 
9.162344310086e+00 1.000000000000e+00 
9.532603789411e+00 1.000000000000e+00 
9.532603789411e+00 1.000000000000e+00 
9.899160674727e+00 1.000000000000e+00 
9.899160674727e+00 1.000000000000e+00 
1.026205199119e+01 1.000000000000e+00 
1.026205199119e+01 1.000000000000e+00 
1.062131439479e+01 1.000000000000e+00 
1.062131439479e+01 1.000000000000e+00 
1.097698417388e+01 1.000000000000e+00 
1.097698417388e+01 1.000000000000e+00 
1.132909725638e+01 1.000000000000e+00 
1.132909725638e+01 1.000000000000e+00 
1.167768920815e+01 1.000000000000e+00 
1.167768920815e+01 1.000000000000e+00 
1.202279524015e+01 1.000000000000e+00 
1.202279524015e+01 1.000000000000e+00 
1.236445021252e+01 1.000000000000e+00 
1.236445021252e+01 1.000000000000e+00 
1.270268863568e+01 1.000000000000e+00 
1.270268863568e+01 1.000000000000e+00 
1.303754467427e+01 1.000000000000e+00 
1.303754467427e+01 1.000000000000e+00 
1.336905215110e+01 1.000000000000e+00 
1.336905215110e+01 1.000000000000e+00 
1.369724455397e+01 1.000000000000e+00 
1.369724455397e+01 1.000000000000e+00 
1.402215503337e+01 1.000000000000e+00 
1.402215503337e+01 1.000000000000e+00 
1.434381640631e+01 1.000000000000e+00 
1.434381640631e+01 1.000000000000e+00 
1.466226116587e+01 1.000000000000e+00 
1.466226116587e+01 1.000000000000e+00 
1.497752147876e+01 1.000000000000e+00 
1.497752147876e+01 1.000000000000e+00 
1.528962918890e+01 1.000000000000e+00 
1.528962918890e+01 1.000000000000e+00 
1.559861582076e+01 1.000000000000e+00 
1.559861582076e+01 1.000000000000e+00 
1.590451258585e+01 1.000000000000e+00 
1.590451258585e+01 1.000000000000e+00 
1.620735038291e+01 1.000000000000e+00 
1.620735038291e+01 1.000000000000e+00 
1.650715980126e+01 1.000000000000e+00 
1.650715980126e+01 1.000000000000e+00 
1.680397112688e+01 1.000000000000e+00 
1.680397112688e+01 1.000000000000e+00 
1.709781433961e+01 1.000000000000e+00 
1.709781433961e+01 1.000000000000e+00 
1.738871911921e+01 1.000000000000e+00 
1.738871911921e+01 1.000000000000e+00 
1.767671485134e+01 1.000000000000e+00 
1.767671485134e+01 1.000000000000e+00 
1.796183062747e+01 1.000000000000e+00 
1.796183062747e+01 1.000000000000e+00 
1.824409524482e+01 1.000000000000e+00 
1.824409524482e+01 1.000000000000e+00 
1.852353721519e+01 1.000000000000e+00 
1.852353721519e+01 1.000000000000e+00 
1.880018476764e+01 1.000000000000e+00 
1.880018476764e+01 1.000000000000e+00 
1.907406584525e+01 1.000000000000e+00 
1.907406584525e+01 1.000000000000e+00 
1.934520811079e+01 1.000000000000e+00 
1.934520811079e+01 1.000000000000e+00 
1.961363895232e+01 1.000000000000e+00 
1.961363895232e+01 1.000000000000e+00 
1.987938548567e+01 1.000000000000e+00 
1.987938548567e+01 1.000000000000e+00 
2.014247455395e+01 1.000000000000e+00 
2.014247455395e+01 1.000000000000e+00 
2.040293272997e+01 1.000000000000e+00 
2.040293272997e+01 1.000000000000e+00 
2.066078632467e+01 1.000000000000e+00 
2.066078632467e+01 1.000000000000e+00 
2.091606138624e+01 1.000000000000e+00 
2.091606138624e+01 1.000000000000e+00 
2.116878369686e+01 1.000000000000e+00 
2.116878369686e+01 1.000000000000e+00 
2.141897878317e+01 1.000000000000e+00 
2.141897878317e+01 1.000000000000e+00 
2.166667191915e+01 1.000000000000e+00 
2.166667191915e+01 1.000000000000e+00 
2.191188812483e+01 1.000000000000e+00 
2.191188812483e+01 1.000000000000e+00 
2.215465216843e+01 1.000000000000e+00 
2.215465216843e+01 1.000000000000e+00 
2.239498857147e+01 1.000000000000e+00 
2.239498857147e+01 1.000000000000e+00 
2.263292161056e+01 1.000000000000e+00 
2.263292161056e+01 1.000000000000e+00 
2.286847531945e+01 1.000000000000e+00 
2.286847531945e+01 1.000000000000e+00 
2.310167349079e+01 1.000000000000e+00 
2.310167349079e+01 1.000000000000e+00 
2.333253967804e+01 1.000000000000e+00 
2.333253967804e+01 1.000000000000e+00 
2.356109720316e+01 1.000000000000e+00 
2.356109720316e+01 1.000000000000e+00 
2.378736915530e+01 1.000000000000e+00 
2.378736915530e+01 1.000000000000e+00 
2.401137838949e+01 1.000000000000e+00 
2.401137838949e+01 1.000000000000e+00 
2.423314753134e+01 1.000000000000e+00 
2.423314753134e+01 1.000000000000e+00 
2.445269898152e+01 1.000000000000e+00 
2.445269898152e+01 1.000000000000e+00 
2.467005491734e+01 1.000000000000e+00 
2.467005491734e+01 1.000000000000e+00 
2.488523729422e+01 1.000000000000e+00 
2.488523729422e+01 1.000000000000e+00 
2.509826784711e+01 1.000000000000e+00 
2.509826784711e+01 1.000000000000e+00 
2.530916809488e+01 1.000000000000e+00 
2.530916809488e+01 1.000000000000e+00 
2.551795933881e+01 1.000000000000e+00 
2.551795933881e+01 1.000000000000e+00 
2.572466266963e+01 1.000000000000e+00 
2.572466266963e+01 1.000000000000e+00 
2.592929896600e+01 1.000000000000e+00 
2.592929896600e+01 1.000000000000e+00 
2.613188889870e+01 1.000000000000e+00 
2.613188889870e+01 1.000000000000e+00 
2.633245293470e+01 1.000000000000e+00 
2.633245293470e+01 1.000000000000e+00 
2.653101132936e+01 1.000000000000e+00 
2.653101132936e+01 1.000000000000e+00 
2.672758413963e+01 1.000000000000e+00 
2.672758413963e+01 1.000000000000e+00 
2.692219122191e+01 1.000000000000e+00 
2.692219122191e+01 1.000000000000e+00 
2.711485223325e+01 1.000000000000e+00 
2.711485223325e+01 1.000000000000e+00 
2.730558663516e+01 1.000000000000e+00 
2.730558663516e+01 1.000000000000e+00 
2.749441369170e+01 1.000000000000e+00 
2.749441369170e+01 1.000000000000e+00 
2.768135247625e+01 1.000000000000e+00 
2.768135247625e+01 1.000000000000e+00 
2.786642187247e+01 1.000000000000e+00 
2.786642187247e+01 1.000000000000e+00 
2.804964057500e+01 1.000000000000e+00 
2.804964057500e+01 1.000000000000e+00 
2.823102709034e+01 1.000000000000e+00 
2.823102709034e+01 1.000000000000e+00 
2.841059974053e+01 1.000000000000e+00 
2.841059974053e+01 1.000000000000e+00 
2.858837666689e+01 1.000000000000e+00 
2.858837666689e+01 1.000000000000e+00 
2.876437582464e+01 1.000000000000e+00 
2.876437582464e+01 1.000000000000e+00 
2.893861498963e+01 1.000000000000e+00 
2.893861498963e+01 1.000000000000e+00 
2.911111176485e+01 1.000000000000e+00 
2.911111176485e+01 1.000000000000e+00 
2.928188357197e+01 1.000000000000e+00 
2.928188357197e+01 1.000000000000e+00 
2.945094766098e+01 1.000000000000e+00 
2.945094766098e+01 1.000000000000e+00 
2.961832111052e+01 1.000000000000e+00 
2.961832111052e+01 1.000000000000e+00 
2.978402082546e+01 1.000000000000e+00 
2.978402082546e+01 1.000000000000e+00 
2.994806354328e+01 1.000000000000e+00 
2.994806354328e+01 1.000000000000e+00 
3.011046583142e+01 1.000000000000e+00 
3.011046583142e+01 1.000000000000e+00 
3.027124409672e+01 1.000000000000e+00 
3.027124409672e+01 1.000000000000e+00 
3.043041457957e+01 1.000000000000e+00 
3.043041457957e+01 1.000000000000e+00 
3.058799335738e+01 1.000000000000e+00 
3.058799335738e+01 1.000000000000e+00 
3.074399634768e+01 1.000000000000e+00 
3.074399634768e+01 1.000000000000e+00 
3.089843930846e+01 1.000000000000e+00 
3.089843930846e+01 1.000000000000e+00 
3.105133784124e+01 1.000000000000e+00 
3.105133784124e+01 1.000000000000e+00 
3.120270738832e+01 1.000000000000e+00 
3.120270738832e+01 1.000000000000e+00 
3.135256323889e+01 1.000000000000e+00 
3.135256323889e+01 1.000000000000e+00 
3.150092052907e+01 1.000000000000e+00 
3.150092052907e+01 1.000000000000e+00 
3.164779424804e+01 1.000000000000e+00 
3.164779424804e+01 1.000000000000e+00 
3.179319923193e+01 1.000000000000e+00 
3.179319923193e+01 1.000000000000e+00 
3.193715016398e+01 1.000000000000e+00 
3.193715016398e+01 1.000000000000e+00 
3.207966158651e+01 1.000000000000e+00 
3.207966158651e+01 1.000000000000e+00 
3.222074789468e+01 1.000000000000e+00 
3.222074789468e+01 1.000000000000e+00 
3.236042333961e+01 1.000000000000e+00 
3.236042333961e+01 1.000000000000e+00 
3.249870203111e+01 1.000000000000e+00 
3.249870203111e+01 1.000000000000e+00 
3.263559793463e+01 1.000000000000e+00 
3.263559793463e+01 1.000000000000e+00 
3.277112488002e+01 1.000000000000e+00 
3.277112488002e+01 1.000000000000e+00 
3.290529655535e+01 1.000000000000e+00 
3.290529655535e+01 1.000000000000e+00 
3.303812651273e+01 1.000000000000e+00 
3.303812651273e+01 1.000000000000e+00 
3.316962817094e+01 1.000000000000e+00 
3.316962817094e+01 1.000000000000e+00 
3.329981481222e+01 1.000000000000e+00 
3.329981481222e+01 1.000000000000e+00 
3.342869958796e+01 1.000000000000e+00 
3.342869958796e+01 1.000000000000e+00 
3.355629551528e+01 1.000000000000e+00 
3.355629551528e+01 1.000000000000e+00 
3.368261548278e+01 1.000000000000e+00 
3.368261548278e+01 1.000000000000e+00 
3.380767225007e+01 1.000000000000e+00 
3.380767225007e+01 1.000000000000e+00 
3.393147845034e+01 1.000000000000e+00 
3.393147845034e+01 1.000000000000e+00 
3.405404658994e+01 1.000000000000e+00 
3.405404658994e+01 1.000000000000e+00 
3.417538904792e+01 1.000000000000e+00 
3.417538904792e+01 1.000000000000e+00 
3.429551808150e+01 1.000000000000e+00 
3.429551808150e+01 1.000000000000e+00 
3.441444582560e+01 1.000000000000e+00 
3.441444582560e+01 1.000000000000e+00 
3.453218429222e+01 1.000000000000e+00 
3.453218429222e+01 1.000000000000e+00 
3.464874537296e+01 1.000000000000e+00 
3.464874537296e+01 1.000000000000e+00 
3.476414084434e+01 1.000000000000e+00 
3.476414084434e+01 1.000000000000e+00 
3.487838236120e+01 1.000000000000e+00 
3.487838236120e+01 1.000000000000e+00 
3.499148146213e+01 1.000000000000e+00 
3.499148146213e+01 1.000000000000e+00 
3.510344957168e+01 1.000000000000e+00 
3.510344957168e+01 1.000000000000e+00 
3.521429799980e+01 1.000000000000e+00 
3.521429799980e+01 1.000000000000e+00 
3.532403794400e+01 1.000000000000e+00 
3.532403794400e+01 1.000000000000e+00 
3.543268048871e+01 1.000000000000e+00 
3.543268048871e+01 1.000000000000e+00 
3.554023660747e+01 1.000000000000e+00 
3.554023660747e+01 1.000000000000e+00 
3.564671716519e+01 1.000000000000e+00 
3.564671716519e+01 1.000000000000e+00 
3.575213291727e+01 1.000000000000e+00 
3.575213291727e+01 1.000000000000e+00 
3.585649451188e+01 1.000000000000e+00 
3.585649451188e+01 1.000000000000e+00 
3.595981249202e+01 1.000000000000e+00 
3.595981249202e+01 1.000000000000e+00 
3.606209729169e+01 1.000000000000e+00 
3.606209729169e+01 1.000000000000e+00 
3.616335924104e+01 1.000000000000e+00 
3.616335924104e+01 1.000000000000e+00 
3.626360857141e+01 1.000000000000e+00 
3.626360857141e+01 1.000000000000e+00 
3.636285540837e+01 1.000000000000e+00 
3.636285540837e+01 1.000000000000e+00 
3.646110977685e+01 1.000000000000e+00 
3.646110977685e+01 1.000000000000e+00 
3.655838160307e+01 1.000000000000e+00 
3.655838160307e+01 1.000000000000e+00 
3.665468071061e+01 1.000000000000e+00 
3.665468071061e+01 1.000000000000e+00 
3.675001682841e+01 1.000000000000e+00 
3.675001682841e+01 1.000000000000e+00 
3.684439958667e+01 1.000000000000e+00 
3.684439958667e+01 1.000000000000e+00 
3.693783851586e+01 1.000000000000e+00 
3.693783851586e+01 1.000000000000e+00 
3.703034305466e+01 1.000000000000e+00 
3.703034305466e+01 1.000000000000e+00 
3.712192254881e+01 1.000000000000e+00 
3.712192254881e+01 1.000000000000e+00 
3.721258624699e+01 1.000000000000e+00 
3.721258624699e+01 1.000000000000e+00 
3.730234330879e+01 1.000000000000e+00 
3.730234330879e+01 1.000000000000e+00 
3.739120280040e+01 1.000000000000e+00 
3.739120280040e+01 1.000000000000e+00 
3.747917369664e+01 1.000000000000e+00 
3.747917369664e+01 1.000000000000e+00 
3.756626488560e+01 1.000000000000e+00 
3.756626488560e+01 1.000000000000e+00 
3.765248516150e+01 1.000000000000e+00 
3.765248516150e+01 1.000000000000e+00 
3.773784323258e+01 1.000000000000e+00 
3.773784323258e+01 1.000000000000e+00 
3.782234772267e+01 1.000000000000e+00 
3.782234772267e+01 1.000000000000e+00 
3.790600717004e+01 1.000000000000e+00 
3.790600717004e+01 1.000000000000e+00 
3.798883002307e+01 1.000000000000e+00 
3.798883002307e+01 1.000000000000e+00 
3.807082464508e+01 1.000000000000e+00 
3.807082464508e+01 1.000000000000e+00 
3.815199932188e+01 1.000000000000e+00 
3.815199932188e+01 1.000000000000e+00 
3.823236225151e+01 1.000000000000e+00 
3.823236225151e+01 1.000000000000e+00 
3.831192155190e+01 1.000000000000e+00 
3.831192155190e+01 1.000000000000e+00 
3.839068525948e+01 1.000000000000e+00 
3.839068525948e+01 1.000000000000e+00 
3.846866133085e+01 1.000000000000e+00 
3.846866133085e+01 1.000000000000e+00 
3.854585764132e+01 1.000000000000e+00 
3.854585764132e+01 1.000000000000e+00 
3.862228198662e+01 1.000000000000e+00 
3.862228198662e+01 1.000000000000e+00 
3.869794209036e+01 1.000000000000e+00 
3.869794209036e+01 1.000000000000e+00 
3.877284559360e+01 1.000000000000e+00 
3.877284559360e+01 1.000000000000e+00 
3.884700006248e+01 1.000000000000e+00 
3.884700006248e+01 1.000000000000e+00 
3.892041298666e+01 1.000000000000e+00 
3.892041298666e+01 1.000000000000e+00 
3.899309178093e+01 1.000000000000e+00 
3.899309178093e+01 1.000000000000e+00 
3.906504378659e+01 1.000000000000e+00 
3.906504378659e+01 1.000000000000e+00 
3.913627627307e+01 1.000000000000e+00 
3.913627627307e+01 1.000000000000e+00 
3.920679643622e+01 1.000000000000e+00 
3.920679643622e+01 1.000000000000e+00 
3.927661139697e+01 1.000000000000e+00 
3.927661139697e+01 1.000000000000e+00 
3.934572820861e+01 1.000000000000e+00 
3.934572820861e+01 1.000000000000e+00 
3.941415385231e+01 1.000000000000e+00 
3.941415385231e+01 1.000000000000e+00 
3.948189523848e+01 1.000000000000e+00 
3.948189523848e+01 1.000000000000e+00 
3.954895921123e+01 1.000000000000e+00 
3.954895921123e+01 1.000000000000e+00 
3.961535254363e+01 1.000000000000e+00 
3.961535254363e+01 1.000000000000e+00 
3.968108194226e+01 1.000000000000e+00 
3.968108194226e+01 1.000000000000e+00 
3.974615404836e+01 1.000000000000e+00 
3.974615404836e+01 1.000000000000e+00 
3.981057543334e+01 1.000000000000e+00 
3.981057543334e+01 1.000000000000e+00 
3.987435260302e+01 1.000000000000e+00 
3.987435260302e+01 1.000000000000e+00 
3.993749199903e+01 1.000000000000e+00 
3.993749199903e+01 1.000000000000e+00 
4.000000000000e+01 1.000000000000e+00 
4.000000000000e+01 1.000000000000e+00 
 TITLE = "Profiles along polylines"
 VARIABLES = "DIST" "SATURATION1" 
 ZONE T="TIME=1.797693134862e+308"
0.000000000000e+00 1.000000000000e+00 
0.000000000000e+00 1.000000000000e+00 
4.618829203569e-01 1.000000000000e+00 
4.618829203569e-01 1.000000000000e+00 
9.191470120950e-01 1.000000000000e+00 
9.191470120950e-01 1.000000000000e+00 
1.371838465678e+00 1.000000000000e+00 
1.371838465678e+00 1.000000000000e+00 
1.820003006032e+00 1.000000000000e+00 
1.820003006032e+00 1.000000000000e+00 
2.263685898897e+00 1.000000000000e+00 
2.263685898897e+00 1.000000000000e+00 
2.702931962895e+00 1.000000000000e+00 
2.702931962895e+00 1.000000000000e+00 
3.137785566562e+00 1.000000000000e+00 
3.137785566562e+00 1.000000000000e+00 
3.568290634397e+00 1.000000000000e+00 
3.568290634397e+00 1.000000000000e+00 
3.994490652667e+00 1.000000000000e+00 
3.994490652667e+00 1.000000000000e+00 
4.416428669260e+00 1.000000000000e+00 
4.416428669260e+00 1.000000000000e+00 
4.834147305392e+00 1.000000000000e+00 
4.834147305392e+00 1.000000000000e+00 
5.247688755142e+00 1.000000000000e+00 
5.247688755142e+00 1.000000000000e+00 
5.657094791088e+00 1.000000000000e+00 
5.657094791088e+00 1.000000000000e+00 
6.062406766640e+00 1.000000000000e+00 
6.062406766640e+00 1.000000000000e+00 
6.463665621544e+00 1.000000000000e+00 
6.463665621544e+00 1.000000000000e+00 
6.860911890009e+00 1.000000000000e+00 
6.860911890009e+00 1.000000000000e+00 
7.254185696981e+00 1.000000000000e+00 
7.254185696981e+00 1.000000000000e+00 
7.643526763267e+00 1.000000000000e+00 
7.643526763267e+00 1.000000000000e+00 
8.028974416599e+00 1.000000000000e+00 
8.028974416599e+00 1.000000000000e+00 
8.410567593464e+00 1.000000000000e+00 
8.410567593464e+00 1.000000000000e+00 
8.788344838065e+00 1.000000000000e+00 
8.788344838065e+00 1.000000000000e+00 
9.162344310086e+00 1.000000000000e+00 
9.162344310086e+00 1.000000000000e+00 
9.532603789411e+00 1.000000000000e+00 
9.532603789411e+00 1.000000000000e+00 
9.899160674727e+00 1.000000000000e+00 
9.899160674727e+00 1.000000000000e+00 
1.026205199119e+01 1.000000000000e+00 
1.026205199119e+01 1.000000000000e+00 
1.062131439479e+01 1.000000000000e+00 
1.062131439479e+01 1.000000000000e+00 
1.097698417388e+01 1.000000000000e+00 
1.097698417388e+01 1.000000000000e+00 
1.132909725638e+01 1.000000000000e+00 
1.132909725638e+01 1.000000000000e+00 
1.167768920815e+01 1.000000000000e+00 
1.167768920815e+01 1.000000000000e+00 
1.202279524015e+01 1.000000000000e+00 
1.202279524015e+01 1.000000000000e+00 
1.236445021252e+01 1.000000000000e+00 
1.236445021252e+01 1.000000000000e+00 
1.270268863568e+01 1.000000000000e+00 
1.270268863568e+01 1.000000000000e+00 
1.303754467427e+01 1.000000000000e+00 
1.303754467427e+01 1.000000000000e+00 
1.336905215110e+01 1.000000000000e+00 
1.336905215110e+01 1.000000000000e+00 
1.369724455397e+01 1.000000000000e+00 
1.369724455397e+01 1.000000000000e+00 
1.402215503337e+01 1.000000000000e+00 
1.402215503337e+01 1.000000000000e+00 
1.434381640631e+01 1.000000000000e+00 
1.434381640631e+01 1.000000000000e+00 
1.466226116587e+01 1.000000000000e+00 
1.466226116587e+01 1.000000000000e+00 
1.497752147876e+01 1.000000000000e+00 
1.497752147876e+01 1.000000000000e+00 
1.528962918890e+01 1.000000000000e+00 
1.528962918890e+01 1.000000000000e+00 
1.559861582076e+01 1.000000000000e+00 
1.559861582076e+01 1.000000000000e+00 
1.590451258585e+01 1.000000000000e+00 
1.590451258585e+01 1.000000000000e+00 
1.620735038291e+01 1.000000000000e+00 
1.620735038291e+01 1.000000000000e+00 
1.650715980126e+01 1.000000000000e+00 
1.650715980126e+01 1.000000000000e+00 
1.680397112688e+01 1.000000000000e+00 
1.680397112688e+01 1.000000000000e+00 
1.709781433961e+01 1.000000000000e+00 
1.709781433961e+01 1.000000000000e+00 
1.738871911921e+01 1.000000000000e+00 
1.738871911921e+01 1.000000000000e+00 
1.767671485134e+01 1.000000000000e+00 
1.767671485134e+01 1.000000000000e+00 
1.796183062747e+01 1.000000000000e+00 
1.796183062747e+01 1.000000000000e+00 
1.824409524482e+01 9.853870623860e-01 
1.824409524482e+01 9.904785371208e-01 
1.852353721519e+01 9.241060812052e-01 
1.852353721519e+01 9.300427880026e-01 
1.880018476764e+01 8.672421422850e-01 
1.880018476764e+01 8.724736216838e-01 
1.907406584525e+01 8.188683768085e-01 
1.907406584525e+01 8.233088498236e-01 
1.934520811079e+01 7.820625572290e-01 
1.934520811079e+01 7.782969841845e-01 
1.961363895232e+01 7.473052578070e-01 
1.961363895232e+01 7.440823254269e-01 
1.987938548567e+01 7.149151483636e-01 
1.987938548567e+01 7.177059539247e-01 
2.014247455395e+01 6.897596514829e-01 
2.014247455395e+01 6.922042749147e-01 
2.040293272997e+01 6.678233945102e-01 
2.040293272997e+01 6.699875978880e-01 
2.066078632467e+01 6.485021984683e-01 
2.066078632467e+01 6.504364231989e-01 
2.091606138624e+01 6.313320218694e-01 
2.091606138624e+01 6.330753223894e-01 
2.116878369686e+01 6.159524149522e-01 
2.116878369686e+01 6.175353887500e-01 
2.141897878317e+01 6.020798934087e-01 
2.141897878317e+01 6.035268103165e-01 
2.166667191915e+01 5.894887270680e-01 
2.166667191915e+01 5.908190713876e-01 
2.191188812483e+01 5.779970361087e-01 
2.191188812483e+01 5.792266297054e-01 
2.215465216843e+01 5.674566419277e-01 
2.215465216843e+01 5.685984699497e-01 
2.239498857147e+01 5.577455779106e-01 
2.239498857147e+01 5.588104026498e-01 
2.263292161056e+01 5.487624984117e-01 
2.263292161056e+01 5.497593209829e-01 
2.286847531945e+01 5.404224555367e-01 
2.286847531945e+01 5.413588671134e-01 
2.310167349079e+01 5.326536725709e-01 
2.310167349079e+01 5.335361245822e-01 
2.333253967804e+01 5.253950518478e-01 
2.333253967804e+01 5.262290660428e-01 
2.356109720316e+01 5.185942297764e-01 
2.356109720316e+01 5.193845631793e-01 
2.378736915530e+01 5.122060444804e-01 
2.378736915530e+01 5.129568201466e-01 
2.401137838949e+01 5.061913172457e-01 
2.401137838949e+01 5.069061288291e-01 
2.423314753134e+01 5.005158750479e-01 
2.423314753134e+01 5.011978711170e-01 
2.445269898152e+01 4.951497602959e-01 
2.445269898152e+01 4.958017128499e-01 
2.467005491734e+01 4.900665871836e-01 
2.467005491734e+01 4.906909477362e-01 
2.488523729422e+01 4.852430136867e-01 
2.488523729422e+01 4.858419594872e-01 
2.509826784711e+01 4.806583055517e-01 
2.509826784711e+01 4.812337779222e-01 
2.530916809488e+01 4.762939739461e-01 
2.530916809488e+01 4.768477102718e-01 
2.551795933881e+01 4.721334727267e-01 
2.551795933881e+01 4.726670333013e-01 
2.572466266963e+01 4.681619438528e-01 
2.572466266963e+01 4.686767345283e-01 
2.592929896600e+01 4.643660024774e-01 
2.592929896600e+01 4.648632938687e-01 
2.613188889870e+01 4.607335543931e-01 
2.613188889870e+01 4.612144982409e-01 
2.633245293470e+01 4.572536403375e-01 
2.633245293470e+01 4.577192835115e-01 
2.653101132936e+01 4.539163028104e-01 
2.653101132936e+01 4.543675993468e-01 
2.672758413963e+01 4.507124711641e-01 
2.672758413963e+01 4.511502926517e-01 
2.692219122191e+01 4.476338626051e-01 
2.692219122191e+01 4.480590071840e-01 
2.711485223325e+01 4.446728963203e-01 
2.711485223325e+01 4.450860965061e-01 
2.730558663516e+01 4.418226187258e-01 
2.730558663516e+01 4.422245482357e-01 
2.749441369170e+01 4.390766382939e-01 
2.749441369170e+01 4.394679180237e-01 
2.768135247625e+01 4.364290683495e-01 
2.768135247625e+01 4.368102716206e-01 
2.786642187247e+01 4.338744768964e-01 
2.786642187247e+01 4.342461340791e-01 
2.804964057500e+01 4.314078424088e-01 
2.804964057500e+01 4.317704450056e-01 
2.823102709034e+01 4.290245147643e-01 
2.823102709034e+01 4.293785190274e-01 
2.841059974053e+01 4.267201805924e-01 
2.841059974053e+01 4.270660107364e-01 
2.858837666689e+01 4.244908324928e-01 
2.858837666689e+01 4.248288835554e-01 
2.876437582464e+01 4.223327417325e-01 
2.876437582464e+01 4.226633821278e-01 
2.893861498963e+01 4.202424337265e-01 
2.893861498963e+01 4.205660075297e-01 
2.911111176485e+01 4.182166661050e-01 
2.911111176485e+01 4.185334951004e-01 
2.928188357197e+01 4.162524092157e-01 
2.928188357197e+01 4.165627947378e-01 
2.945094766098e+01 4.143468283996e-01 
2.945094766098e+01 4.146510529901e-01 
2.961832111052e+01 4.124972681341e-01 
2.961832111052e+01 4.127955970373e-01 
2.978402082546e+01 4.107012377562e-01 
2.978402082546e+01 4.109939202712e-01 
2.994806354328e+01 4.089563984635e-01 
2.994806354328e+01 4.092436691681e-01 
3.011046583142e+01 4.072605516363e-01 
3.011046583142e+01 4.075426314981e-01 
3.027124409672e+01 4.056116281214e-01 
3.027124409672e+01 4.058887255070e-01 
3.043041457957e+01 4.040076786464e-01 
3.043041457957e+01 4.042799902404e-01 
3.058799335738e+01 4.024468650025e-01 
3.058799335738e+01 4.027145766459e-01 
3.074399634768e+01 4.009274520108e-01 
3.074399634768e+01 4.011907394656e-01 
3.089843930846e+01 3.994478002118e-01 
3.089843930846e+01 3.997068298615e-01 
3.105133784124e+01 3.980063591565e-01 
3.105133784124e+01 3.982612886470e-01 
3.120270738832e+01 3.968526401425e-01 
3.120270738832e+01 3.966016613151e-01 
3.135256323889e+01 3.954794864625e-01 
3.135256323889e+01 3.952323164117e-01 
3.150092052907e+01 3.938970062750e-01 
3.150092052907e+01 3.941405023230e-01 
3.164779424804e+01 3.925944800521e-01 
3.164779424804e+01 3.928344302157e-01 
3.179319923193e+01 3.913235499068e-01 
3.179319923193e+01 3.915600760706e-01 
3.193715016398e+01 3.900830870015e-01 
3.193715016398e+01 3.903163052058e-01 
3.207966158651e+01 3.888720176887e-01 
3.207966158651e+01 3.891020384893e-01 
3.222074789468e+01 3.876893201443e-01 
3.222074789468e+01 3.879162489454e-01 
3.236042333961e+01 3.865340211764e-01 
3.236042333961e+01 3.867579585391e-01 
3.249870203111e+01 3.854051932736e-01 
3.249870203111e+01 3.856262352018e-01 
3.263559793463e+01 3.843019519146e-01 
3.263559793463e+01 3.845201901206e-01 
3.277112488002e+01 3.832234529782e-01 
3.277112488002e+01 3.834389751292e-01 
3.290529655535e+01 3.821688904549e-01 
3.290529655535e+01 3.823817804026e-01 
3.303812651273e+01 3.811374942255e-01 
3.303812651273e+01 3.813478322197e-01 
3.316962817094e+01 3.803363909063e-01 
3.316962817094e+01 3.801285280185e-01 
3.329981481222e+01 3.793467489627e-01 
3.329981481222e+01 3.791412875513e-01 
3.342869958796e+01 3.781750987308e-01 
3.342869958796e+01 3.783782292520e-01 
3.355629551528e+01 3.772293160404e-01 
3.355629551528e+01 3.774301833760e-01 
3.368261548278e+01 3.763033209675e-01 
3.368261548278e+01 3.765019900917e-01 
3.380767225007e+01 3.753965205778e-01 
3.380767225007e+01 3.755930538768e-01 
3.393147845034e+01 3.745083461596e-01 
3.393147845034e+01 3.747028035638e-01 
3.405404658994e+01 3.736382519761e-01 
3.405404658994e+01 3.738306910851e-01 
3.417538904792e+01 3.727857140952e-01 
3.417538904792e+01 3.729761902943e-01 
3.429551808150e+01 3.719502292523e-01 
3.429551808150e+01 3.721387958227e-01 
3.441444582560e+01 3.711313138233e-01 
3.441444582560e+01 3.713180220446e-01 
3.453218429222e+01 3.703285028601e-01 
3.453218429222e+01 3.705134021077e-01 
3.464874537296e+01 3.695413491648e-01 
3.464874537296e+01 3.697244870009e-01 
3.476414084434e+01 3.687694223981e-01 
3.476414084434e+01 3.689508446576e-01 
3.487838236120e+01 3.680123083209e-01 
3.487838236120e+01 3.681920591922e-01 
3.499148146213e+01 3.672696079994e-01 
3.499148146213e+01 3.674477301012e-01 
3.510344957168e+01 3.665409370786e-01 
3.510344957168e+01 3.667174715312e-01 
3.521429799980e+01 3.658259251133e-01 
3.521429799980e+01 3.660009116071e-01 
3.532403794400e+01 3.651242149209e-01 
3.532403794400e+01 3.652976917802e-01 
3.543268048871e+01 3.644354619870e-01 
3.543268048871e+01 3.646074662309e-01 
3.554023660747e+01 3.637593338862e-01 
3.554023660747e+01 3.639299012860e-01 
3.564671716519e+01 3.630955097350e-01 
3.564671716519e+01 3.632646748684e-01 
3.575213291727e+01 3.624436796922e-01 
3.575213291727e+01 3.626114759947e-01 
3.585649451188e+01 3.618035444679e-01 
3.585649451188e+01 3.619700042817e-01 
3.595981249202e+01 3.611748148595e-01 
3.595981249202e+01 3.613399694794e-01 
3.606209729169e+01 3.605572113470e-01 
3.606209729169e+01 3.607210910645e-01 
3.616335924104e+01 3.599504636568e-01 
3.616335924104e+01 3.601130978014e-01 
3.626360857141e+01 3.593543103476e-01 
3.626360857141e+01 3.595157273263e-01 
3.636285540837e+01 3.587684984887e-01 
3.636285540837e+01 3.589287258235e-01 
3.646110977685e+01 3.581927832829e-01 
3.646110977685e+01 3.583518476466e-01 
3.655838160307e+01 3.577848549785e-01 
3.655838160307e+01 3.576269277287e-01 
3.665468071061e+01 3.572275175404e-01 
3.665468071061e+01 3.570707023309e-01 
3.675001682841e+01 3.565238847586e-01 
3.675001682841e+01 3.566796122492e-01 
3.684439958667e+01 3.559862595883e-01 
3.684439958667e+01 3.561409229576e-01 
3.693783851586e+01 3.554576180412e-01 
3.693783851586e+01 3.556112401913e-01 
3.703034305466e+01 3.549377576842e-01 
3.703034305466e+01 3.550903608479e-01 
3.712192254881e+01 3.544264821946e-01 
3.712192254881e+01 3.545780879608e-01 
3.721258624699e+01 3.539236011523e-01 
3.721258624699e+01 3.540742304901e-01 
3.730234330879e+01 3.534289297765e-01 
3.730234330879e+01 3.535786030581e-01 
3.739120280040e+01 3.529422887398e-01 
3.739120280040e+01 3.530910257625e-01 
3.747917369664e+01 3.524635039579e-01 
3.747917369664e+01 3.526113239651e-01 
3.756626488560e+01 3.519924063742e-01 
3.756626488560e+01 3.521393280752e-01 
3.765248516150e+01 3.515288318164e-01 
3.765248516150e+01 3.516748734059e-01 
3.773784323258e+01 3.510726207816e-01 
3.773784323258e+01 3.512177999577e-01 
3.782234772267e+01 3.506236182620e-01 
3.782234772267e+01 3.507679522437e-01 
3.790600717004e+01 3.501816735938e-01 
3.790600717004e+01 3.503251791379e-01 
3.798883002307e+01 3.497466403290e-01 
3.798883002307e+01 3.498893337460e-01 
3.807082464508e+01 3.493183760655e-01 
3.807082464508e+01 3.494602732351e-01 
3.815199932188e+01 3.488967422699e-01 
3.815199932188e+01 3.490378586554e-01 
3.823236225151e+01 3.484816041994e-01 
3.823236225151e+01 3.486219548622e-01 
3.831192155190e+01 3.480728307359e-01 
3.831192155190e+01 3.482124303485e-01 
3.839068525948e+01 3.476702942722e-01 
3.839068525948e+01 3.478091571315e-01 
3.846866133085e+01 3.472738705882e-01 
3.846866133085e+01 3.474120106280e-01 
3.854585764132e+01 3.468834387480e-01 
3.854585764132e+01 3.470208695504e-01 
3.862228198662e+01 3.464988809842e-01 