 TITLE = "Profiles along polylines"
 VARIABLES = "DIST" "SATURATION1" 
 ZONE T="TIME=0.000000000000e+00"
0.000000000000e+00 1.000000000000e+00 
4.618829203569e-01 1.000000000000e+00 
9.191470120950e-01 1.000000000000e+00 
1.371838465678e+00 1.000000000000e+00 
1.820003006032e+00 1.000000000000e+00 
2.263685898897e+00 1.000000000000e+00 
2.702931962895e+00 1.000000000000e+00 
3.137785566562e+00 1.000000000000e+00 
3.568290634397e+00 1.000000000000e+00 
3.994490652667e+00 1.000000000000e+00 
4.416428669260e+00 1.000000000000e+00 
4.834147305392e+00 1.000000000000e+00 
5.247688755142e+00 1.000000000000e+00 
5.657094791088e+00 1.000000000000e+00 
6.062406766640e+00 1.000000000000e+00 
6.463665621544e+00 1.000000000000e+00 
6.860911890009e+00 1.000000000000e+00 
7.254185696981e+00 1.000000000000e+00 
7.643526763267e+00 1.000000000000e+00 
8.028974416599e+00 1.000000000000e+00 
8.410567593464e+00 1.000000000000e+00 
8.788344838065e+00 1.000000000000e+00 
9.162344310086e+00 1.000000000000e+00 
9.532603789411e+00 1.000000000000e+00 
9.899160674727e+00 1.000000000000e+00 
1.026205199119e+01 1.000000000000e+00 
1.062131439479e+01 1.000000000000e+00 
1.097698417388e+01 1.000000000000e+00 
1.132909725638e+01 1.000000000000e+00 
1.167768920815e+01 1.000000000000e+00 
1.202279524015e+01 1.000000000000e+00 
1.236445021252e+01 1.000000000000e+00 
1.270268863568e+01 1.000000000000e+00 
1.303754467427e+01 1.000000000000e+00 
1.336905215110e+01 1.000000000000e+00 
1.369724455397e+01 1.000000000000e+00 
1.402215503337e+01 1.000000000000e+00 
1.434381640631e+01 1.000000000000e+00 
1.466226116587e+01 1.000000000000e+00 
1.497752147876e+01 1.000000000000e+00 
1.528962918890e+01 1.000000000000e+00 
1.559861582076e+01 1.000000000000e+00 
1.590451258585e+01 1.000000000000e+00 
1.620735038291e+01 1.000000000000e+00 
1.650715980126e+01 1.000000000000e+00 
1.680397112688e+01 1.000000000000e+00 
1.709781433961e+01 1.000000000000e+00 
1.738871911921e+01 1.000000000000e+00 
1.767671485134e+01 1.000000000000e+00 
1.796183062747e+01 1.000000000000e+00 
1.824409524482e+01 1.000000000000e+00 
1.852353721519e+01 1.000000000000e+00 
1.880018476764e+01 1.000000000000e+00 
1.907406584525e+01 1.000000000000e+00 
1.934520811079e+01 1.000000000000e+00 
1.961363895232e+01 1.000000000000e+00 
1.987938548567e+01 1.000000000000e+00 
2.014247455395e+01 1.000000000000e+00 
2.040293272997e+01 1.000000000000e+00 
2.066078632467e+01 1.000000000000e+00 
2.091606138624e+01 1.000000000000e+00 
2.116878369686e+01 1.000000000000e+00 
2.141897878317e+01 1.000000000000e+00 
2.166667191915e+01 1.000000000000e+00 
2.191188812483e+01 1.000000000000e+00 
2.215465216843e+01 1.000000000000e+00 
2.239498857147e+01 1.000000000000e+00 
2.263292161056e+01 1.000000000000e+00 
2.286847531945e+01 1.000000000000e+00 
2.310167349079e+01 1.000000000000e+00 
2.333253967804e+01 1.000000000000e+00 
2.356109720316e+01 1.000000000000e+00 
2.378736915530e+01 1.000000000000e+00 
2.401137838949e+01 1.000000000000e+00 
2.423314753134e+01 1.000000000000e+00 
2.445269898152e+01 1.000000000000e+00 
2.467005491734e+01 1.000000000000e+00 
2.488523729422e+01 1.000000000000e+00 
2.509826784711e+01 1.000000000000e+00 
2.530916809488e+01 1.000000000000e+00 
2.551795933881e+01 1.000000000000e+00 
2.572466266963e+01 1.000000000000e+00 
2.592929896600e+01 1.000000000000e+00 
2.613188889870e+01 1.000000000000e+00 
2.633245293470e+01 1.000000000000e+00 
2.653101132936e+01 1.000000000000e+00 
2.672758413963e+01 1.000000000000e+00 
2.692219122191e+01 1.000000000000e+00 
2.711485223325e+01 1.000000000000e+00 
2.730558663516e+01 1.000000000000e+00 
2.749441369170e+01 1.000000000000e+00 
2.768135247625e+01 1.000000000000e+00 
2.786642187247e+01 1.000000000000e+00 
2.804964057500e+01 1.000000000000e+00 
2.823102709034e+01 1.000000000000e+00 
2.841059974053e+01 1.000000000000e+00 
2.858837666689e+01 1.000000000000e+00 
2.876437582464e+01 1.000000000000e+00 
2.893861498963e+01 1.000000000000e+00 
2.911111176485e+01 1.000000000000e+00 
2.928188357197e+01 1.000000000000e+00 
2.945094766098e+01 1.000000000000e+00 
2.961832111052e+01 1.000000000000e+00 
2.978402082546e+01 1.000000000000e+00 
2.994806354328e+01 1.000000000000e+00 
3.011046583142e+01 1.000000000000e+00 
3.027124409672e+01 1.000000000000e+00 
3.043041457957e+01 1.000000000000e+00 
3.058799335738e+01 1.000000000000e+00 
3.074399634768e+01 1.000000000000e+00 
3.089843930846e+01 1.000000000000e+00 
3.105133784124e+01 1.000000000000e+00 
3.120270738832e+01 1.000000000000e+00 
3.135256323889e+01 1.000000000000e+00 
3.150092052907e+01 1.000000000000e+00 
3.164779424804e+01 1.000000000000e+00 
3.179319923193e+01 1.000000000000e+00 
3.193715016398e+01 1.000000000000e+00 
3.207966158651e+01 1.000000000000e+00 
3.222074789468e+01 1.000000000000e+00 
3.236042333961e+01 1.000000000000e+00 
3.249870203111e+01 1.000000000000e+00 
3.263559793463e+01 1.000000000000e+00 
3.277112488002e+01 1.000000000000e+00 
3.290529655535e+01 1.000000000000e+00 
3.303812651273e+01 1.000000000000e+00 
3.316962817094e+01 1.000000000000e+00 
3.329981481222e+01 1.000000000000e+00 
3.342869958796e+01 1.000000000000e+00 
3.355629551528e+01 1.000000000000e+00 
3.368261548278e+01 1.000000000000e+00 
3.380767225007e+01 1.000000000000e+00 
3.393147845034e+01 1.000000000000e+00 
3.405404658994e+01 1.000000000000e+00 
3.417538904792e+01 1.000000000000e+00 
3.429551808150e+01 1.000000000000e+00 
3.441444582560e+01 1.000000000000e+00 
3.453218429222e+01 1.000000000000e+00 
3.464874537296e+01 1.000000000000e+00 
3.476414084434e+01 1.000000000000e+00 
3.487838236120e+01 1.000000000000e+00 
3.499148146213e+01 1.000000000000e+00 
3.510344957168e+01 1.000000000000e+00 
3.521429799980e+01 1.000000000000e+00 
3.532403794400e+01 1.000000000000e+00 
3.543268048871e+01 1.000000000000e+00 
3.554023660747e+01 1.000000000000e+00 
3.564671716519e+01 1.000000000000e+00 
3.575213291727e+01 1.000000000000e+00 
3.585649451188e+01 1.000000000000e+00 
3.595981249202e+01 1.000000000000e+00 
3.606209729169e+01 1.000000000000e+00 
3.616335924104e+01 1.000000000000e+00 
3.626360857141e+01 1.000000000000e+00 
3.636285540837e+01 1.000000000000e+00 
3.646110977685e+01 1.000000000000e+00 
3.655838160307e+01 1.000000000000e+00 
3.665468071061e+01 1.000000000000e+00 
3.675001682841e+01 1.000000000000e+00 
3.684439958667e+01 1.000000000000e+00 
3.693783851586e+01 1.000000000000e+00 
3.703034305466e+01 1.000000000000e+00 
3.712192254881e+01 1.000000000000e+00 
3.721258624699e+01 1.000000000000e+00 
3.730234330879e+01 1.000000000000e+00 
3.739120280040e+01 1.000000000000e+00 
3.747917369664e+01 1.000000000000e+00 
3.756626488560e+01 1.000000000000e+00 
3.765248516150e+01 1.000000000000e+00 
3.773784323258e+01 1.000000000000e+00 
3.782234772267e+01 1.000000000000e+00 
3.790600717004e+01 1.000000000000e+00 
3.798883002307e+01 1.000000000000e+00 
3.807082464508e+01 1.000000000000e+00 
3.815199932188e+01 1.000000000000e+00 
3.823236225151e+01 1.000000000000e+00 
3.831192155190e+01 1.000000000000e+00 
3.839068525948e+01 1.000000000000e+00 
3.846866133085e+01 1.000000000000e+00 
3.854585764132e+01 1.000000000000e+00 
3.862228198662e+01 1.000000000000e+00 
3.869794209036e+01 1.000000000000e+00 
3.877284559360e+01 1.000000000000e+00 
3.884700006248e+01 1.000000000000e+00 
3.892041298666e+01 1.000000000000e+00 
3.899309178093e+01 1.000000000000e+00 
3.906504378659e+01 1.000000000000e+00 
3.913627627307e+01 1.000000000000e+00 
3.920679643622e+01 1.000000000000e+00 
3.927661139697e+01 1.000000000000e+00 
3.934572820861e+01 1.000000000000e+00 
3.941415385231e+01 1.000000000000e+00 
3.948189523848e+01 1.000000000000e+00 
3.954895921123e+01 1.000000000000e+00 
3.961535254363e+01 1.000000000000e+00 
3.968108194226e+01 1.000000000000e+00 
3.974615404836e+01 1.000000000000e+00 
3.981057543334e+01 1.000000000000e+00 
3.987435260302e+01 1.000000000000e+00 
3.993749199903e+01 1.000000000000e+00 
4.000000000000e+01 1.000000000000e+00 
 TITLE = "Profiles along polylines"
 VARIABLES = "DIST" "SATURATION1" 
 ZONE T="TIME=1.797693134862e+308"
0.000000000000e+00 1.000000000000e+00 
4.618829203569e-01 1.000000000000e+00 
9.191470120950e-01 1.000000000000e+00 
1.371838465678e+00 1.000000000000e+00 
1.820003006032e+00 1.000000000000e+00 
2.263685898897e+00 1.000000000000e+00 
2.702931962895e+00 1.000000000000e+00 
3.137785566562e+00 1.000000000000e+00 
3.568290634397e+00 1.000000000000e+00 
3.994490652667e+00 1.000000000000e+00 
4.416428669260e+00 1.000000000000e+00 
4.834147305392e+00 1.000000000000e+00 
5.247688755142e+00 1.000000000000e+00 
5.657094791088e+00 1.000000000000e+00 
6.062406766640e+00 1.000000000000e+00 
6.463665621544e+00 1.000000000000e+00 
6.860911890009e+00 1.000000000000e+00 
7.254185696981e+00 1.000000000000e+00 
7.643526763267e+00 1.000000000000e+00 
8.028974416599e+00 1.000000000000e+00 
8.410567593464e+00 1.000000000000e+00 
8.788344838065e+00 1.000000000000e+00 
9.162344310086e+00 1.000000000000e+00 
9.532603789411e+00 1.000000000000e+00 
9.899160674727e+00 1.000000000000e+00 
1.026205199119e+01 1.000000000000e+00 
1.062131439479e+01 1.000000000000e+00 
1.097698417388e+01 1.000000000000e+00 
1.132909725638e+01 1.000000000000e+00 
1.167768920815e+01 1.000000000000e+00 
1.202279524015e+01 1.000000000000e+00 
1.236445021252e+01 1.000000000000e+00 
1.270268863568e+01 1.000000000000e+00 
1.303754467427e+01 1.000000000000e+00 
1.336905215110e+01 1.000000000000e+00 
1.369724455397e+01 1.000000000000e+00 
1.402215503337e+01 1.000000000000e+00 
1.434381640631e+01 1.000000000000e+00 
1.466226116587e+01 1.000000000000e+00 
1.497752147876e+01 1.000000000000e+00 
1.528962918890e+01 1.000000000000e+00 
1.559861582076e+01 1.000000000000e+00 
1.590451258585e+01 1.000000000000e+00 
1.620735038291e+01 1.000000000000e+00 
1.650715980126e+01 1.000000000000e+00 
1.680397112688e+01 1.000000000000e+00 
1.709781433961e+01 1.000000000000e+00 
1.738871911921e+01 1.000000000000e+00 
1.767671485134e+01 1.000000000000e+00 
1.796183062747e+01 1.000000000000e+00 
1.824409524482e+01 1.000000000000e+00 
1.852353721519e+01 1.000000000000e+00 
1.880018476764e+01 1.000000000000e+00 
1.907406584525e+01 1.000000000000e+00 
1.934520811079e+01 1.000000000000e+00 
1.961363895232e+01 1.000000000000e+00 
1.987938548567e+01 1.000000000000e+00 
2.014247455395e+01 1.000000000000e+00 
2.040293272997e+01 1.000000000000e+00 
2.066078632467e+01 1.000000000000e+00 
2.091606138624e+01 1.000000000000e+00 
2.116878369686e+01 9.968504833668e-01 
2.141897878317e+01 9.455729843220e-01 
2.166667191915e+01 8.924028105005e-01 
2.191188812483e+01 8.453933212121e-01 
2.215465216843e+01 8.051050092321e-01 
2.239498857147e+01 7.706699260923e-01 
2.263292161056e+01 7.410520417639e-01 
2.286847531945e+01 7.153488048135e-01 
2.310167349079e+01 6.928341994236e-01 
2.333253967804e+01 6.729373616737e-01 
2.356109720316e+01 6.552106391535e-01 
2.378736915530e+01 6.393011177155e-01 
2.401137838949e+01 6.249281598448e-01 
2.423314753134e+01 6.118664012266e-01 
2.445269898152e+01 5.999330429064e-01 
2.467005491734e+01 5.889783595810e-01 
2.488523729422e+01 5.788785738042e-01 
2.509826784711e+01 5.695304646162e-01 
2.530916809488e+01 5.608472515649e-01 
2.551795933881e+01 5.527554230923e-01 
2.572466266963e+01 5.451922690823e-01 
2.592929896600e+01 5.381039441577e-01 
2.613188889870e+01 5.314439336929e-01 
2.633245293470e+01 5.251718287448e-01 
2.653101132936e+01 5.192523402175e-01 
2.672758413963e+01 5.136544986656e-01 
2.692219122191e+01 5.083510010737e-01 
2.711485223325e+01 5.033176735828e-01 
2.730558663516e+01 4.985330267853e-01 
2.749441369170e+01 4.939778856322e-01 
2.768135247625e+01 4.896350793681e-01 
2.786642187247e+01 4.854891806802e-01 
2.804964057500e+01 4.815262850247e-01 
2.823102709034e+01 4.777338230458e-01 
2.841059974053e+01 4.741004003440e-01 
2.858837666689e+01 4.706156600725e-01 
2.876437582464e+01 4.672701647938e-01 
2.893861498963e+01 4.640552941306e-01 
2.911111176485e+01 4.609631559780e-01 
2.928188357197e+01 4.579865094578e-01 
2.945094766098e+01 4.551186973059e-01 
2.961832111052e+01 4.523535867753e-01 
2.978402082546e+01 4.496855177292e-01 
2.994806354328e+01 4.471092567410e-01 
3.011046583142e+01 4.446199566531e-01 
3.027124409672e+01 4.422131205483e-01 
3.043041457957e+01 4.398845699535e-01 
3.058799335738e+01 4.376304163766e-01 
3.074399634768e+01 4.354470358961e-01 
3.089843930846e+01 4.333310464528e-01 
3.105133784124e+01 4.312792874464e-01 
3.120270738832e+01 4.292888014687e-01 
3.135256323889e+01 4.273568177386e-01 
3.150092052907e+01 4.254807372277e-01 
3.164779424804e+01 4.236581191389e-01 
3.179319923193e+01 4.218866688050e-01 
3.193715016398e+01 4.201642266332e-01 
3.207966158651e+01 4.184887579197e-01 
3.222074789468e+01 4.168583437854e-01 
3.236042333961e+01 4.152711728059e-01 
3.249870203111e+01 4.137255333716e-01 
3.263559793463e+01 4.122198067631e-01 
3.277112488002e+01 4.107524606825e-01 
3.290529655535e+01 4.093220434793e-01 
3.303812651273e+01 4.079271787214e-01 
3.316962817094e+01 4.065665602362e-01 
3.329981481222e+01 4.052389476033e-01 
3.342869958796e+01 4.039431619115e-01 
3.355629551528e+01 4.026780819305e-01 
3.368261548278e+01 4.014426404858e-01 
3.380767225007e+01 4.002358211650e-01 
3.393147845034e+01 3.990566552366e-01 
3.405404658994e+01 3.979042188245e-01 
3.417538904792e+01 3.967776302834e-01 
3.429551808150e+01 3.956760477080e-01 
3.441444582560e+01 3.945986666707e-01 
3.453218429222e+01 3.935447181154e-01 
3.464874537296e+01 3.925134663696e-01 
3.476414084434e+01 3.915042072655e-01 
3.487838236120e+01 3.905162664885e-01 
3.499148146213e+01 3.895489979331e-01 
3.510344957168e+01 3.886017821920e-01 
3.521429799980e+01 3.876740251662e-01 
3.532403794400e+01 3.867651567404e-01 
3.543268048871e+01 3.858746295648e-01 
3.554023660747e+01 3.850019178897e-01 
3.564671716519e+01 3.841465164714e-01 
3.575213291727e+01 3.833079395683e-01 
3.585649451188e+01 3.824857199740e-01 
3.595981249202e+01 3.816794081086e-01 
3.606209729169e+01 3.808885712087e-01 
3.616335924104e+01 3.801127924967e-01 
3.626360857141e+01 3.793516703978e-01 
3.636285540837e+01 3.786048178923e-01 
3.646110977685e+01 3.778718618137e-01 
3.655838160307e+01 3.771524422104e-01 
3.665468071061e+01 3.764462117844e-01 
3.675001682841e+01 3.757528352757e-01 
3.684439958667e+01 3.750719889650e-01 
3.693783851586e+01 3.744033601825e-01 
3.703034305466e+01 3.737466467788e-01 
3.712192254881e+01 3.731015566877e-01 
3.721258624699e+01 3.724678075314e-01 
3.730234330879e+01 3.718451261644e-01 
3.739120280040e+01 3.712332483227e-01 
3.747917369664e+01 3.706319182494e-01 
3.756626488560e+01 3.700408883200e-01 
3.765248516150e+01 3.694599187661e-01 
3.773784323258e+01 3.688887773129e-01 
3.782234772267e+01 3.683272388746e-01 
3.790600717004e+01 3.677750852842e-01 
3.798883002307e+01 3.672321050555e-01 
3.807082464508e+01 3.666980930982e-01 
3.815199932188e+01 3.661728504280e-01 
3.823236225151e+01 3.656561840044e-01 
3.831192155190e+01 3.651479064622e-01 
3.839068525948e+01 3.646478359125e-01 
3.846866133085e+01 3.641557957327e-01 
3.854585764132e+01 3.636716143873e-01 
3.862228198662e+01 3.631951252346e-01 
3.869794209036e+01 3.627261663090e-01 
3.877284559360e+01 3.622645802203e-01 
3.884700006248e+01 3.618102139486e-01 
3.892041298666e+01 3.613629187036e-01 
3.899309178093e+01 3.609225497707e-01 
3.906504378659e+01 3.604889663646e-01 
3.913627627307e+01 3.600620314885e-01 
3.920679643622e+01 3.596416118176e-01 
3.927661139697e+01 3.592275775871e-01 
3.934572820861e+01 3.588198024321e-01 
3.941415385231e+01 3.584181633049e-01 
3.948189523848e+01 3.580225403596e-01 
3.954895921123e+01 3.576328168252e-01 
3.961535254363e+01 3.572488789352e-01 
3.968108194226e+01 3.568706158080e-01 
3.974615404836e+01 3.564979193505e-01 
3.981057543334e+01 3.561306841980e-01 
3.987435260302e+01 3.557688076068e-01 
3.993749199903e+01 3.554121893674e-01 
4.000000000000e+01 3.550607307387e-01 
