 TITLE = "Profiles along polylines"
 VARIABLES = "DIST" "SATURATION1" 
 ZONE T="TIME=0.000000000000e+00"
0.000000000000e+00 1.000000000000e+00 
0.000000000000e+00 1.000000000000e+00 
4.618829203569e-01 1.000000000000e+00 
4.618829203569e-01 1.000000000000e+00 
9.191470120950e-01 1.000000000000e+00 
9.191470120950e-01 1.000000000000e+00 
1.371838465678e+00 1.000000000000e+00 
1.371838465678e+00 1.000000000000e+00 
1.820003006032e+00 1.000000000000e+00 
1.820003006032e+00 1.000000000000e+00 
2.263685898897e+00 1.000000000000e+00 
2.263685898897e+00 1.000000000000e+00 
2.702931962895e+00 1.000000000000e+00 
2.702931962895e+00 1.000000000000e+00 
3.137785566562e+00 1.000000000000e+00 
3.137785566562e+00 1.000000000000e+00 
3.568290634397e+00 1.000000000000e+00 
3.568290634397e+00 1.000000000000e+00 
3.994490652667e+00 1.000000000000e+00 
3.994490652667e+00 1.000000000000e+00 
4.416428669260e+00 1.000000000000e+00 
4.416428669260e+00 1.000000000000e+00 
4.834147305392e+00 1.000000000000e+00 
4.834147305392e+00 1.000000000000e+00 
5.247688755142e+00 1.000000000000e+00 
5.247688755142e+00 1.000000000000e+00 
5.657094791088e+00 1.000000000000e+00 
5.657094791088e+00 1.000000000000e+00 
6.062406766640e+00 1.000000000000e+00 
6.062406766640e+00 1.000000000000e+00 
6.463665621544e+00 1.000000000000e+00 
6.463665621544e+00 1.000000000000e+00 
6.860911890009e+00 1.000000000000e+00 
6.860911890009e+00 1.000000000000e+00 
7.254185696981e+00 1.000000000000e+00 
7.254185696981e+00 1.000000000000e+00 
7.643526763267e+00 1.000000000000e+00 
7.643526763267e+00 1.000000000000e+00 
8.028974416599e+00 1.000000000000e+00 
8.028974416599e+00 1.000000000000e+00 
8.410567593464e+00 1.000000000000e+00 
8.410567593464e+00 1.000000000000e+00 
8.788344838065e+00 1.000000000000e+00 
8.788344838065e+00 1.000000000000e+00 
9.162344310086e+00 1.000000000000e+00 
9.162344310086e+00 1.000000000000e+00 
9.532603789411e+00 1.000000000000e+00 
9.532603789411e+00 1.000000000000e+00 
9.899160674727e+00 1.000000000000e+00 
9.899160674727e+00 1.000000000000e+00 
1.026205199119e+01 1.000000000000e+00 
1.026205199119e+01 1.000000000000e+00 
1.062131439479e+01 1.000000000000e+00 
1.062131439479e+01 1.000000000000e+00 
1.097698417388e+01 1.000000000000e+00 
1.097698417388e+01 1.000000000000e+00 
1.132909725638e+01 1.000000000000e+00 
1.132909725638e+01 1.000000000000e+00 
1.167768920815e+01 1.000000000000e+00 
1.167768920815e+01 1.000000000000e+00 
1.202279524015e+01 1.000000000000e+00 
1.202279524015e+01 1.000000000000e+00 
1.236445021252e+01 1.000000000000e+00 
1.236445021252e+01 1.000000000000e+00 
1.270268863568e+01 1.000000000000e+00 
1.270268863568e+01 1.000000000000e+00 
1.303754467427e+01 1.000000000000e+00 
1.303754467427e+01 1.000000000000e+00 
1.336905215110e+01 1.000000000000e+00 
1.336905215110e+01 1.000000000000e+00 
1.369724455397e+01 1.000000000000e+00 
1.369724455397e+01 1.000000000000e+00 
1.402215503337e+01 1.000000000000e+00 
1.402215503337e+01 1.000000000000e+00 
1.434381640631e+01 1.000000000000e+00 
1.434381640631e+01 1.000000000000e+00 
1.466226116587e+01 1.000000000000e+00 
1.466226116587e+01 1.000000000000e+00 
1.497752147876e+01 1.000000000000e+00 
1.497752147876e+01 1.000000000000e+00 
1.528962918890e+01 1.000000000000e+00 
1.528962918890e+01 1.000000000000e+00 
1.559861582076e+01 1.000000000000e+00 
1.559861582076e+01 1.000000000000e+00 
1.590451258585e+01 1.000000000000e+00 
1.590451258585e+01 1.000000000000e+00 
1.620735038291e+01 1.000000000000e+00 
1.620735038291e+01 1.000000000000e+00 
1.650715980126e+01 1.000000000000e+00 
1.650715980126e+01 1.000000000000e+00 
1.680397112688e+01 1.000000000000e+00 
1.680397112688e+01 1.000000000000e+00 
1.709781433961e+01 1.000000000000e+00 
1.709781433961e+01 1.000000000000e+00 
1.738871911921e+01 1.000000000000e+00 
1.738871911921e+01 1.000000000000e+00 
1.767671485134e+01 1.000000000000e+00 
1.767671485134e+01 1.000000000000e+00 
1.796183062747e+01 1.000000000000e+00 
1.796183062747e+01 1.000000000000e+00 
1.824409524482e+01 1.000000000000e+00 
1.824409524482e+01 1.000000000000e+00 
1.852353721519e+01 1.000000000000e+00 
1.852353721519e+01 1.000000000000e+00 
1.880018476764e+01 1.000000000000e+00 
1.880018476764e+01 1.000000000000e+00 
1.907406584525e+01 1.000000000000e+00 
1.907406584525e+01 1.000000000000e+00 
1.934520811079e+01 1.000000000000e+00 
1.934520811079e+01 1.000000000000e+00 
1.961363895232e+01 1.000000000000e+00 
1.961363895232e+01 1.000000000000e+00 
1.987938548567e+01 1.000000000000e+00 
1.987938548567e+01 1.000000000000e+00 
2.014247455395e+01 1.000000000000e+00 
2.014247455395e+01 1.000000000000e+00 
2.040293272997e+01 1.000000000000e+00 
2.040293272997e+01 1.000000000000e+00 
2.066078632467e+01 1.000000000000e+00 
2.066078632467e+01 1.000000000000e+00 
2.091606138624e+01 1.000000000000e+00 
2.091606138624e+01 1.000000000000e+00 
2.116878369686e+01 1.000000000000e+00 
2.116878369686e+01 1.000000000000e+00 
2.141897878317e+01 1.000000000000e+00 
2.141897878317e+01 1.000000000000e+00 
2.166667191915e+01 1.000000000000e+00 
2.166667191915e+01 1.000000000000e+00 
2.191188812483e+01 1.000000000000e+00 
2.191188812483e+01 1.000000000000e+00 
2.215465216843e+01 1.000000000000e+00 
2.215465216843e+01 1.000000000000e+00 
2.239498857147e+01 1.000000000000e+00 
2.239498857147e+01 1.000000000000e+00 
2.263292161056e+01 1.000000000000e+00 
2.263292161056e+01 1.000000000000e+00 
2.286847531945e+01 1.000000000000e+00 
2.286847531945e+01 1.000000000000e+00 
2.310167349079e+01 1.000000000000e+00 
2.310167349079e+01 1.000000000000e+00 
2.333253967804e+01 1.000000000000e+00 
2.333253967804e+01 1.000000000000e+00 
2.356109720316e+01 1.000000000000e+00 
2.356109720316e+01 1.000000000000e+00 
2.378736915530e+01 1.000000000000e+00 
2.378736915530e+01 1.000000000000e+00 
2.401137838949e+01 1.000000000000e+00 
2.401137838949e+01 1.000000000000e+00 
2.423314753134e+01 1.000000000000e+00 
2.423314753134e+01 1.000000000000e+00 
2.445269898152e+01 1.000000000000e+00 
2.445269898152e+01 1.000000000000e+00 
2.467005491734e+01 1.000000000000e+00 
2.467005491734e+01 1.000000000000e+00 
2.488523729422e+01 1.000000000000e+00 
2.488523729422e+01 1.000000000000e+00 
2.509826784711e+01 1.000000000000e+00 
2.509826784711e+01 1.000000000000e+00 
2.530916809488e+01 1.000000000000e+00 
2.530916809488e+01 1.000000000000e+00 
2.551795933881e+01 1.000000000000e+00 
2.551795933881e+01 1.000000000000e+00 
2.572466266963e+01 1.000000000000e+00 
2.572466266963e+01 1.000000000000e+00 
2.592929896600e+01 1.000000000000e+00 
2.592929896600e+01 1.000000000000e+00 
2.613188889870e+01 1.000000000000e+00 
2.613188889870e+01 1.000000000000e+00 
2.633245293470e+01 1.000000000000e+00 
2.633245293470e+01 1.000000000000e+00 
2.653101132936e+01 1.000000000000e+00 
2.653101132936e+01 1.000000000000e+00 
2.672758413963e+01 1.000000000000e+00 
2.672758413963e+01 1.000000000000e+00 
2.692219122191e+01 1.000000000000e+00 
2.692219122191e+01 1.000000000000e+00 
2.711485223325e+01 1.000000000000e+00 
2.711485223325e+01 1.000000000000e+00 
2.730558663516e+01 1.000000000000e+00 
2.730558663516e+01 1.000000000000e+00 
2.749441369170e+01 1.000000000000e+00 
2.749441369170e+01 1.000000000000e+00 
2.768135247625e+01 1.000000000000e+00 
2.768135247625e+01 1.000000000000e+00 
2.786642187247e+01 1.000000000000e+00 
2.786642187247e+01 1.000000000000e+00 
2.804964057500e+01 1.000000000000e+00 
2.804964057500e+01 1.000000000000e+00 
2.823102709034e+01 1.000000000000e+00 
2.823102709034e+01 1.000000000000e+00 
2.841059974053e+01 1.000000000000e+00 
2.841059974053e+01 1.000000000000e+00 
2.858837666689e+01 1.000000000000e+00 
2.858837666689e+01 1.000000000000e+00 
2.876437582464e+01 1.000000000000e+00 
2.876437582464e+01 1.000000000000e+00 
2.893861498963e+01 1.000000000000e+00 
2.893861498963e+01 1.000000000000e+00 
2.911111176485e+01 1.000000000000e+00 
2.911111176485e+01 1.000000000000e+00 
2.928188357197e+01 1.000000000000e+00 
2.928188357197e+01 1.000000000000e+00 
2.945094766098e+01 1.000000000000e+00 
2.945094766098e+01 1.000000000000e+00 
2.961832111052e+01 1.000000000000e+00 
2.961832111052e+01 1.000000000000e+00 
2.978402082546e+01 1.000000000000e+00 
2.978402082546e+01 1.000000000000e+00 
2.994806354328e+01 1.000000000000e+00 
2.994806354328e+01 1.000000000000e+00 
3.011046583142e+01 1.000000000000e+00 
3.011046583142e+01 1.000000000000e+00 
3.027124409672e+01 1.000000000000e+00 
3.027124409672e+01 1.000000000000e+00 
3.043041457957e+01 1.000000000000e+00 
3.043041457957e+01 1.000000000000e+00 
3.058799335738e+01 1.000000000000e+00 
3.058799335738e+01 1.000000000000e+00 
3.074399634768e+01 1.000000000000e+00 
3.074399634768e+01 1.000000000000e+00 
3.089843930846e+01 1.000000000000e+00 
3.089843930846e+01 1.000000000000e+00 
3.105133784124e+01 1.000000000000e+00 
3.105133784124e+01 1.000000000000e+00 
3.120270738832e+01 1.000000000000e+00 
3.120270738832e+01 1.000000000000e+00 
3.135256323889e+01 1.000000000000e+00 
3.135256323889e+01 1.000000000000e+00 
3.150092052907e+01 1.000000000000e+00 
3.150092052907e+01 1.000000000000e+00 
3.164779424804e+01 1.000000000000e+00 
3.164779424804e+01 1.000000000000e+00 
3.179319923193e+01 1.000000000000e+00 
3.179319923193e+01 1.000000000000e+00 
3.193715016398e+01 1.000000000000e+00 
3.193715016398e+01 1.000000000000e+00 
3.207966158651e+01 1.000000000000e+00 
3.207966158651e+01 1.000000000000e+00 
3.222074789468e+01 1.000000000000e+00 
3.222074789468e+01 1.000000000000e+00 
3.236042333961e+01 1.000000000000e+00 
3.236042333961e+01 1.000000000000e+00 
3.249870203111e+01 1.000000000000e+00 
3.249870203111e+01 1.000000000000e+00 
3.263559793463e+01 1.000000000000e+00 
3.263559793463e+01 1.000000000000e+00 
3.277112488002e+01 1.000000000000e+00 
3.277112488002e+01 1.000000000000e+00 
3.290529655535e+01 1.000000000000e+00 
3.290529655535e+01 1.000000000000e+00 
3.303812651273e+01 1.000000000000e+00 
3.303812651273e+01 1.000000000000e+00 
3.316962817094e+01 1.000000000000e+00 
3.316962817094e+01 1.000000000000e+00 
3.329981481222e+01 1.000000000000e+00 
3.329981481222e+01 1.000000000000e+00 
3.342869958796e+01 1.000000000000e+00 
3.342869958796e+01 1.000000000000e+00 
3.355629551528e+01 1.000000000000e+00 
3.355629551528e+01 1.000000000000e+00 
3.368261548278e+01 1.000000000000e+00 
3.368261548278e+01 1.000000000000e+00 
3.380767225007e+01 1.000000000000e+00 
3.380767225007e+01 1.000000000000e+00 
3.393147845034e+01 1.000000000000e+00 
3.393147845034e+01 1.000000000000e+00 
3.405404658994e+01 1.000000000000e+00 
3.405404658994e+01 1.000000000000e+00 
3.417538904792e+01 1.000000000000e+00 
3.417538904792e+01 1.000000000000e+00 
3.429551808150e+01 1.000000000000e+00 
3.429551808150e+01 1.000000000000e+00 
3.441444582560e+01 1.000000000000e+00 
3.441444582560e+01 1.000000000000e+00 
3.453218429222e+01 1.000000000000e+00 
3.453218429222e+01 1.000000000000e+00 
3.464874537296e+01 1.000000000000e+00 
3.464874537296e+01 1.000000000000e+00 
3.476414084434e+01 1.000000000000e+00 
3.476414084434e+01 1.000000000000e+00 
3.487838236120e+01 1.000000000000e+00 
3.487838236120e+01 1.000000000000e+00 
3.499148146213e+01 1.000000000000e+00 
3.499148146213e+01 1.000000000000e+00 
3.510344957168e+01 1.000000000000e+00 
3.510344957168e+01 1.000000000000e+00 
3.521429799980e+01 1.000000000000e+00 
3.521429799980e+01 1.000000000000e+00 
3.532403794400e+01 1.000000000000e+00 
3.532403794400e+01 1.000000000000e+00 
3.543268048871e+01 1.000000000000e+00 
3.543268048871e+01 1.000000000000e+00 
3.554023660747e+01 1.000000000000e+00 
3.554023660747e+01 1.000000000000e+00 
3.564671716519e+01 1.000000000000e+00 
3.564671716519e+01 1.000000000000e+00 
3.575213291727e+01 1.000000000000e+00 
3.575213291727e+01 1.000000000000e+00 
3.585649451188e+01 1.000000000000e+00 
3.585649451188e+01 1.000000000000e+00 
3.595981249202e+01 1.000000000000e+00 
3.595981249202e+01 1.000000000000e+00 
3.606209729169e+01 1.000000000000e+00 
3.606209729169e+01 1.000000000000e+00 
3.616335924104e+01 1.000000000000e+00 
3.616335924104e+01 1.000000000000e+00 
3.626360857141e+01 1.000000000000e+00 
3.626360857141e+01 1.000000000000e+00 
3.636285540837e+01 1.000000000000e+00 
3.636285540837e+01 1.000000000000e+00 
3.646110977685e+01 1.000000000000e+00 
3.646110977685e+01 1.000000000000e+00 
3.655838160307e+01 1.000000000000e+00 
3.655838160307e+01 1.000000000000e+00 
3.665468071061e+01 1.000000000000e+00 
3.665468071061e+01 1.000000000000e+00 
3.675001682841e+01 1.000000000000e+00 
3.675001682841e+01 1.000000000000e+00 
3.684439958667e+01 1.000000000000e+00 
3.684439958667e+01 1.000000000000e+00 
3.693783851586e+01 1.000000000000e+00 
3.693783851586e+01 1.000000000000e+00 
3.703034305466e+01 1.000000000000e+00 
3.703034305466e+01 1.000000000000e+00 
3.712192254881e+01 1.000000000000e+00 
3.712192254881e+01 1.000000000000e+00 
3.721258624699e+01 1.000000000000e+00 
3.721258624699e+01 1.000000000000e+00 
3.730234330879e+01 1.000000000000e+00 
3.730234330879e+01 1.000000000000e+00 
3.739120280040e+01 1.000000000000e+00 
3.739120280040e+01 1.000000000000e+00 
3.747917369664e+01 1.000000000000e+00 
3.747917369664e+01 1.000000000000e+00 
3.756626488560e+01 1.000000000000e+00 
3.756626488560e+01 1.000000000000e+00 
3.765248516150e+01 1.000000000000e+00 
3.765248516150e+01 1.000000000000e+00 
3.773784323258e+01 1.000000000000e+00 
3.773784323258e+01 1.000000000000e+00 
3.782234772267e+01 1.000000000000e+00 
3.782234772267e+01 1.000000000000e+00 
3.790600717004e+01 1.000000000000e+00 
3.790600717004e+01 1.000000000000e+00 
3.798883002307e+01 1.000000000000e+00 
3.798883002307e+01 1.000000000000e+00 
3.807082464508e+01 1.000000000000e+00 
3.807082464508e+01 1.000000000000e+00 
3.815199932188e+01 1.000000000000e+00 
3.815199932188e+01 1.000000000000e+00 
3.823236225151e+01 1.000000000000e+00 
3.823236225151e+01 1.000000000000e+00 
3.831192155190e+01 1.000000000000e+00 
3.831192155190e+01 1.000000000000e+00 
3.839068525948e+01 1.000000000000e+00 
3.839068525948e+01 1.000000000000e+00 
3.846866133085e+01 1.000000000000e+00 
3.846866133085e+01 1.000000000000e+00 
3.854585764132e+01 1.000000000000e+00 
3.854585764132e+01 1.000000000000e+00 
3.862228198662e+01 1.000000000000e+00 
3.862228198662e+01 1.000000000000e+00 
3.869794209036e+01 1.000000000000e+00 
3.869794209036e+01 1.000000000000e+00 
3.877284559360e+01 1.000000000000e+00 
3.877284559360e+01 1.000000000000e+00 
3.884700006248e+01 1.000000000000e+00 
3.884700006248e+01 1.000000000000e+00 
3.892041298666e+01 1.000000000000e+00 
3.892041298666e+01 1.000000000000e+00 
3.899309178093e+01 1.000000000000e+00 
3.899309178093e+01 1.000000000000e+00 
3.906504378659e+01 1.000000000000e+00 
3.906504378659e+01 1.000000000000e+00 
3.913627627307e+01 1.000000000000e+00 
3.913627627307e+01 1.000000000000e+00 
3.920679643622e+01 1.000000000000e+00 
3.920679643622e+01 1.000000000000e+00 
3.927661139697e+01 1.000000000000e+00 
3.927661139697e+01 1.000000000000e+00 
3.934572820861e+01 1.000000000000e+00 
3.934572820861e+01 1.000000000000e+00 
3.941415385231e+01 1.000000000000e+00 
3.941415385231e+01 1.000000000000e+00 
3.948189523848e+01 1.000000000000e+00 
3.948189523848e+01 1.000000000000e+00 
3.954895921123e+01 1.000000000000e+00 
3.954895921123e+01 1.000000000000e+00 
3.961535254363e+01 1.000000000000e+00 
3.961535254363e+01 1.000000000000e+00 
3.968108194226e+01 1.000000000000e+00 
3.968108194226e+01 1.000000000000e+00 
3.974615404836e+01 1.000000000000e+00 
3.974615404836e+01 1.000000000000e+00 
3.981057543334e+01 1.000000000000e+00 
3.981057543334e+01 1.000000000000e+00 
3.987435260302e+01 1.000000000000e+00 
3.987435260302e+01 1.000000000000e+00 
3.993749199903e+01 1.000000000000e+00 
3.993749199903e+01 1.000000000000e+00 
4.000000000000e+01 1.000000000000e+00 
4.000000000000e+01 1.000000000000e+00 
 TITLE = "Profiles along polylines"
 VARIABLES = "DIST" "SATURATION1" 
 ZONE T="TIME=1.797693134862e+308"
0.000000000000e+00 1.000000000000e+00 
0.000000000000e+00 1.000000000000e+00 
4.618829203569e-01 1.000000000000e+00 
4.618829203569e-01 1.000000000000e+00 
9.191470120950e-01 1.000000000000e+00 
9.191470120950e-01 1.000000000000e+00 
1.371838465678e+00 1.000000000000e+00 
1.371838465678e+00 1.000000000000e+00 
1.820003006032e+00 1.000000000000e+00 
1.820003006032e+00 1.000000000000e+00 
2.263685898897e+00 1.000000000000e+00 
2.263685898897e+00 1.000000000000e+00 
2.702931962895e+00 1.000000000000e+00 
2.702931962895e+00 1.000000000000e+00 
3.137785566562e+00 1.000000000000e+00 
3.137785566562e+00 1.000000000000e+00 
3.568290634397e+00 1.000000000000e+00 
3.568290634397e+00 1.000000000000e+00 
3.994490652667e+00 1.000000000000e+00 
3.994490652667e+00 1.000000000000e+00 
4.416428669260e+00 1.000000000000e+00 
4.416428669260e+00 1.000000000000e+00 
4.834147305392e+00 1.000000000000e+00 
4.834147305392e+00 1.000000000000e+00 
5.247688755142e+00 1.000000000000e+00 
5.247688755142e+00 1.000000000000e+00 
5.657094791088e+00 1.000000000000e+00 
5.657094791088e+00 1.000000000000e+00 
6.062406766640e+00 1.000000000000e+00 
6.062406766640e+00 1.000000000000e+00 
6.463665621544e+00 1.000000000000e+00 
6.463665621544e+00 1.000000000000e+00 
6.860911890009e+00 1.000000000000e+00 
6.860911890009e+00 1.000000000000e+00 
7.254185696981e+00 1.000000000000e+00 
7.254185696981e+00 1.000000000000e+00 
7.643526763267e+00 1.000000000000e+00 
7.643526763267e+00 1.000000000000e+00 
8.028974416599e+00 1.000000000000e+00 
8.028974416599e+00 1.000000000000e+00 
8.410567593464e+00 1.000000000000e+00 
8.410567593464e+00 1.000000000000e+00 
8.788344838065e+00 1.000000000000e+00 
8.788344838065e+00 1.000000000000e+00 
9.162344310086e+00 1.000000000000e+00 
9.162344310086e+00 1.000000000000e+00 
9.532603789411e+00 1.000000000000e+00 
9.532603789411e+00 1.000000000000e+00 
9.899160674727e+00 1.000000000000e+00 
9.899160674727e+00 1.000000000000e+00 
1.026205199119e+01 1.000000000000e+00 
1.026205199119e+01 1.000000000000e+00 
1.062131439479e+01 1.000000000000e+00 
1.062131439479e+01 1.000000000000e+00 
1.097698417388e+01 1.000000000000e+00 
1.097698417388e+01 1.000000000000e+00 
1.132909725638e+01 1.000000000000e+00 
1.132909725638e+01 1.000000000000e+00 
1.167768920815e+01 1.000000000000e+00 
1.167768920815e+01 1.000000000000e+00 
1.202279524015e+01 1.000000000000e+00 
1.202279524015e+01 1.000000000000e+00 
1.236445021252e+01 1.000000000000e+00 
1.236445021252e+01 1.000000000000e+00 
1.270268863568e+01 1.000000000000e+00 
1.270268863568e+01 1.000000000000e+00 
1.303754467427e+01 1.000000000000e+00 
1.303754467427e+01 1.000000000000e+00 
1.336905215110e+01 1.000000000000e+00 
1.336905215110e+01 1.000000000000e+00 
1.369724455397e+01 1.000000000000e+00 
1.369724455397e+01 1.000000000000e+00 
1.402215503337e+01 1.000000000000e+00 
1.402215503337e+01 1.000000000000e+00 
1.434381640631e+01 1.000000000000e+00 
1.434381640631e+01 1.000000000000e+00 
1.466226116587e+01 1.000000000000e+00 
1.466226116587e+01 1.000000000000e+00 
1.497752147876e+01 1.000000000000e+00 
1.497752147876e+01 1.000000000000e+00 
1.528962918890e+01 1.000000000000e+00 
1.528962918890e+01 1.000000000000e+00 
1.559861582076e+01 1.000000000000e+00 
1.559861582076e+01 1.000000000000e+00 
1.590451258585e+01 1.000000000000e+00 
1.590451258585e+01 1.000000000000e+00 
1.620735038291e+01 1.000000000000e+00 
1.620735038291e+01 1.000000000000e+00 
1.650715980126e+01 1.000000000000e+00 
1.650715980126e+01 1.000000000000e+00 
1.680397112688e+01 1.000000000000e+00 
1.680397112688e+01 1.000000000000e+00 
1.709781433961e+01 9.999984022325e-01 
1.709781433961e+01 1.000000000000e+00 
1.738871911921e+01 1.000000000000e+00 
1.738871911921e+01 1.000000000000e+00 
1.767671485134e+01 9.456990902936e-01 
1.767671485134e+01 9.520367476777e-01 
1.796183062747e+01 8.847463393433e-01 
1.796183062747e+01 8.904800671549e-01 
1.824409524482e+01 8.323208853673e-01 
1.824409524482e+01 8.371884865016e-01 
1.852353721519e+01 7.885071146116e-01 
1.852353721519e+01 7.926069883077e-01 
1.880018476764e+01 7.518096040197e-01 
1.880018476764e+01 7.552908925395e-01 
1.907406584525e+01 7.207454516540e-01 
1.907406584525e+01 7.237373924161e-01 
1.934520811079e+01 6.941256150290e-01 
1.934520811079e+01 6.967289337219e-01 
1.961363895232e+01 6.710432187502e-01 
1.961363895232e+01 6.733344841572e-01 
1.987938548567e+01 6.508120662278e-01 
1.987938548567e+01 6.528494883466e-01 
2.014247455395e+01 6.329096299798e-01 
2.014247455395e+01 6.347378654681e-01 
2.040293272997e+01 6.169334255170e-01 
2.040293272997e+01 6.185871552188e-01 
2.066078632467e+01 6.025693722491e-01 
2.066078632467e+01 6.040758823978e-01 
2.091606138624e+01 5.895691508957e-01 
2.091606138624e+01 5.909501855510e-01 
2.116878369686e+01 5.777339638193e-01 
2.116878369686e+01 5.790070612862e-01 
2.141897878317e+01 5.669027858715e-01 
2.141897878317e+01 5.680822523195e-01 
2.166667191915e+01 5.569437679995e-01 
2.166667191915e+01 5.580413950688e-01 
2.191188812483e+01 5.477478698792e-01 
2.191188812483e+01 5.487734700689e-01 
2.215465216843e+01 5.392240848249e-01 
2.215465216843e+01 5.401858957821e-01 
2.239498857147e+01 5.312958156152e-01 
2.239498857147e+01 5.322008090062e-01 
2.263292161056e+01 5.238980923679e-01 
2.263292161056e+01 5.247522124826e-01 
2.286847531945e+01 5.169754135157e-01 
2.286847531945e+01 5.177837635304e-01 
2.310167349079e+01 5.104800532308e-01 
2.310167349079e+01 5.112470420481e-01 
2.333253967804e+01 5.043707218204e-01 
2.333253967804e+01 5.051001809022e-01 
2.356109720316e+01 4.986114958602e-01 
2.356109720316e+01 4.993067729906e-01 
2.378736915530e+01 4.931709569311e-01 
2.378736915530e+01 4.938349920766e-01 
2.401137838949e+01 4.880214926711e-01 
2.401137838949e+01 4.886568798233e-01 
2.423314753134e+01 4.831387252612e-01 
2.423314753134e+01 4.837477632091e-01 
2.445269898152e+01 4.785010410168e-01 
2.445269898152e+01 4.790857753101e-01 
2.467005491734e+01 4.740892007557e-01 
2.467005491734e+01 4.746514586050e-01 
2.488523729422e+01 4.698860150646e-01 
2.488523729422e+01 4.704274345380e-01 
2.509826784711e+01 4.658760721068e-01 
2.509826784711e+01 4.663981266917e-01 
2.530916809488e+01 4.620455081951e-01 
2.530916809488e+01 4.625495275675e-01 
2.551795933881e+01 4.583818135744e-01 
2.551795933881e+01 4.588690012500e-01 
2.572466266963e+01 4.548736669912e-01 
2.572466266963e+01 4.553451153947e-01 
2.592929896600e+01 4.515107944111e-01 
2.592929896600e+01 4.519674977993e-01 
2.613188889870e+01 4.482838476267e-01 
2.613188889870e+01 4.487267132171e-01 
2.633245293470e+01 4.451842996142e-01 
2.633245293470e+01 4.456141572060e-01 
2.653101132936e+01 4.422043541517e-01 
2.653101132936e+01 4.426219644763e-01 
2.672758413963e+01 4.393368670109e-01 
2.672758413963e+01 4.397429290036e-01 
2.692219122191e+01 4.365752774865e-01 
2.692219122191e+01 4.369704346412e-01 
2.711485223325e+01 4.339135484706e-01 
2.711485223325e+01 4.342983944121e-01 
2.730558663516e+01 4.313461138455e-01 
2.730558663516e+01 4.317211972297e-01 
2.749441369170e+01 4.288678322675e-01 
2.749441369170e+01 4.292336611040e-01 
2.768135247625e+01 4.264739462681e-01 
2.768135247625e+01 4.268309917436e-01 
2.786642187247e+01 4.241600461370e-01 
2.786642187247e+01 4.245087460065e-01 
2.804964057500e+01 4.219220378750e-01 
2.804964057500e+01 4.222627994780e-01 
2.823102709034e+01 4.197561146870e-01 
2.823102709034e+01 4.200893176359e-01 
2.841059974053e+01 4.176587315261e-01 
2.841059974053e+01 4.179847301089e-01 
2.858837666689e+01 4.156265823434e-01 
2.858837666689e+01 4.159457076755e-01 
2.876437582464e+01 4.136565798077e-01 
2.876437582464e+01 4.139691417634e-01 
2.893861498963e+01 4.117458369650e-01 
2.893861498963e+01 4.120521259153e-01 
2.911111176485e+01 4.098916507450e-01 
2.911111176485e+01 4.101919391233e-01 
2.928188357197e+01 4.080914872475e-01 
2.928188357197e+01 4.083860309642e-01 
2.945094766098e+01 4.063429682684e-01 
2.945094766098e+01 4.066320079909e-01 
2.961832111052e+01 4.046438592022e-01 
2.961832111052e+01 4.049276215145e-01 
2.978402082546e+01 4.029920581029e-01 
2.978402082546e+01 4.032707565593e-01 
2.994806354328e+01 4.013855856652e-01 
2.994806354328e+01 4.016594217483e-01 
3.011046583142e+01 3.998225761977e-01 
3.011046583142e+01 4.000917401920e-01 
3.027124409672e+01 3.983012692873e-01 
3.027124409672e+01 3.985659410749e-01 
3.043041457957e+01 3.968200023333e-01 
3.043041457957e+01 3.970803521227e-01 
3.058799335738e+01 3.953772036410e-01 
3.058799335738e+01 3.956333926330e-01 
3.074399634768e+01 3.939713861038e-01 
3.074399634768e+01 3.942235671027e-01 
3.089843930846e+01 3.926011414381e-01 
3.089843930846e+01 3.928494594123e-01 
3.105133784124e+01 3.912651348690e-01 
3.105133784124e+01 3.915097274659e-01 
3.120270738832e+01 3.899621002956e-01 
3.120270738832e+01 3.902030983164e-01 
3.135256323889e+01 3.886908357696e-01 
3.135256323889e+01 3.889283636057e-01 
3.150092052907e+01 3.874501993777e-01 
3.150092052907e+01 3.876843754145e-01 
3.164779424804e+01 3.862391053970e-01 
3.164779424804e+01 3.864700423856e-01 
3.179319923193e+01 3.850565208410e-01 
3.179319923193e+01 3.852843262430e-01 
3.193715016398e+01 3.839014622169e-01 
3.193715016398e+01 3.841262385232e-01 
3.207966158651e+01 3.827729924322e-01 
3.207966158651e+01 3.829948374583e-01 
3.222074789468e+01 3.816702180684e-01 
3.222074789468e+01 3.818892252288e-01 
3.236042333961e+01 3.805922867821e-01 
3.236042333961e+01 3.808085453447e-01 
3.249870203111e+01 3.795383848940e-01 
3.249870203111e+01 3.797519802169e-01 
3.263559793463e+01 3.785077351912e-01 
3.263559793463e+01 3.787187489431e-01 
3.277112488002e+01 3.774995947953e-01 
3.277112488002e+01 3.777081051607e-01 
3.290529655535e+01 3.765132532877e-01 
3.290529655535e+01 3.767193351579e-01 
3.303812651273e+01 3.755480308734e-01 
3.303812651273e+01 3.757517560256e-01 
3.316962817094e+01 3.746032766924e-01 
3.316962817094e+01 3.748047139561e-01 
3.329981481222e+01 3.736783672839e-01 
3.329981481222e+01 3.738775826967e-01 
3.342869958796e+01 3.727727050886e-01 
3.342869958796e+01 3.729697620425e-01 
3.355629551528e+01 3.718857171111e-01 
3.355629551528e+01 3.720806764887e-01 
3.368261548278e+01 3.710168536051e-01 
3.368261548278e+01 3.712097739077e-01 
3.380767225007e+01 3.701655868841e-01 
3.380767225007e+01 3.703565243518e-01 
3.393147845034e+01 3.693314101849e-01 
3.393147845034e+01 3.695204189093e-01 
3.405404658994e+01 3.685138366230e-01 
3.405404658994e+01 3.687009686529e-01 
3.417538904792e+01 3.677123982103e-01 
3.417538904792e+01 3.678977036513e-01 
3.429551808150e+01 3.669266448944e-01 
3.429551808150e+01 3.671101720025e-01 
3.441444582560e+01 3.661561436938e-01 
3.441444582560e+01 3.663379389632e-01 
3.453218429222e+01 3.654004778840e-01 
3.453218429222e+01 3.655805861305e-01 
3.464874537296e+01 3.646592462127e-01 
3.464874537296e+01 3.648377106516e-01 
3.476414084434e+01 3.639320621419e-01 
3.476414084434e+01 3.641089244618e-01 
3.487838236120e+01 3.632185532077e-01 
3.487838236120e+01 3.633938536400e-01 
3.499148146213e+01 3.625183603421e-01 
3.499148146213e+01 3.626921377272e-01 
3.510344957168e+01 3.618311372529e-01 
3.510344957168e+01 3.620034291016e-01 
3.521429799980e+01 3.611565498540e-01 
3.521429799980e+01 3.613273924068e-01 
3.532403794400e+01 3.604942757112e-01 
3.532403794400e+01 3.606637039938e-01 
3.543268048871e+01 3.598440035349e-01 
3.543268048871e+01 3.600120514103e-01 
3.554023660747e+01 3.592054326825e-01 
3.554023660747e+01 3.593721329013e-01 
3.564671716519e+01 3.585782726881e-01 
3.564671716519e+01 3.587436569357e-01 
3.575213291727e+01 3.579622428339e-01 
3.575213291727e+01 3.581263417750e-01 
3.585649451188e+01 3.573570717274e-01 
3.585649451188e+01 3.575199150485e-01 
3.595981249202e+01 3.567624968999e-01 
3.595981249202e+01 3.569241133498e-01 
3.606209729169e+01 3.561782644603e-01 
3.606209729169e+01 3.563386818883e-01 
3.616335924104e+01 3.556041287157e-01 
3.616335924104e+01 3.557633741078e-01 
3.626360857141e+01 3.550398518111e-01 
3.626360857141e+01 3.551979513246e-01 
3.636285540837e+01 3.544852034541e-01 
3.636285540837e+01 3.546421824506e-01 
3.646110977685e+01 3.539399605863e-01 
3.646110977685e+01 3.540958436629e-01 
3.655838160307e+01 3.534039070888e-01 
3.655838160307e+01 3.535587181079e-01 
3.665468071061e+01 3.528768335331e-01 
3.665468071061e+01 3.530305956506e-01 
3.675001682841e+01 3.523585368799e-01 
3.675001682841e+01 3.525112725726e-01 
3.684439958667e+01 3.518488202576e-01 
3.684439958667e+01 3.520005513484e-01 
3.693783851586e+01 3.513474927334e-01 
3.693783851586e+01 3.514982404163e-01 
3.703034305466e+01 3.508543690495e-01 
3.703034305466e+01 3.510041539129e-01 
3.712192254881e+01 3.503692694179e-01 
3.712192254881e+01 3.505181114667e-01 
3.721258624699e+01 3.498920193406e-01 
3.721258624699e+01 3.500399380180e-01 
3.730234330879e+01 3.494224493756e-01 
3.730234330879e+01 3.495694635832e-01 
3.739120280040e+01 3.489603949765e-01 
3.739120280040e+01 3.491065230938e-01 
3.747917369664e+01 3.485056963069e-01 
3.747917369664e+01 3.486509562099e-01 
3.756626488560e+01 3.480581980491e-01 
3.756626488560e+01 3.482026071282e-01 
3.765248516150e+01 3.476177492820e-01 
3.765248516150e+01 3.477613244591e-01 
3.773784323258e+01 3.471842032882e-01 
3.773784323258e+01 3.473269610328e-01 
3.782234772267e+01 3.468993737454e-01 
3.782234772267e+01 3.467574174004e-01 
3.790600717004e+01 3.464784234252e-01 
3.790600717004e+01 3.463372528688e-01 
3.798883002307e+01 3.459235747496e-01 
3.798883002307e+01 3.460639747211e-01 
3.807082464508e+01 3.455162517532e-01 
3.807082464508e+01 3.456558959498e-01 
3.815199932188e+01 3.451151560852e-01 
3.815199932188e+01 3.452540589365e-01 
3.823236225151e+01 3.447201633813e-01 
3.823236225151e+01 3.448583389487e-01 
3.831192155190e+01 3.443311525569e-01 
3.831192155190e+01 3.444686145461e-01 
3.839068525948e+01 3.439480057080e-01 
3.839068525948e+01 3.440847674807e-01 
3.846866133085e+01 3.435706080005e-01 
3.846866133085e+01 3.437066825850e-01 
3.854585764132e+01 3.431988475789e-01 
3.854585764132e+01 3.433342476814e-01 
3.862228198662e+01 3.428326154641e-01 