 TITLE = "Profiles along polylines"
 VARIABLES = "DIST" "SATURATION1" 
 ZONE T="TIME=0.000000000000e+00"
0.000000000000e+00 1.000000000000e+00 
4.618829203569e-01 1.000000000000e+00 
9.191470120950e-01 1.000000000000e+00 
1.371838465678e+00 1.000000000000e+00 
1.820003006032e+00 1.000000000000e+00 
2.263685898897e+00 1.000000000000e+00 
2.702931962895e+00 1.000000000000e+00 
3.137785566562e+00 1.000000000000e+00 
3.568290634397e+00 1.000000000000e+00 
3.994490652667e+00 1.000000000000e+00 
4.416428669260e+00 1.000000000000e+00 
4.834147305392e+00 1.000000000000e+00 
5.247688755142e+00 1.000000000000e+00 
5.657094791088e+00 1.000000000000e+00 
6.062406766640e+00 1.000000000000e+00 
6.463665621544e+00 1.000000000000e+00 
6.860911890009e+00 1.000000000000e+00 
7.254185696981e+00 1.000000000000e+00 
7.643526763267e+00 1.000000000000e+00 
8.028974416599e+00 1.000000000000e+00 
8.410567593464e+00 1.000000000000e+00 
8.788344838065e+00 1.000000000000e+00 
9.162344310086e+00 1.000000000000e+00 
9.532603789411e+00 1.000000000000e+00 
9.899160674727e+00 1.000000000000e+00 
1.026205199119e+01 1.000000000000e+00 
1.062131439479e+01 1.000000000000e+00 
1.097698417388e+01 1.000000000000e+00 
1.132909725638e+01 1.000000000000e+00 
1.167768920815e+01 1.000000000000e+00 
1.202279524015e+01 1.000000000000e+00 
1.236445021252e+01 1.000000000000e+00 
1.270268863568e+01 1.000000000000e+00 
1.303754467427e+01 1.000000000000e+00 
1.336905215110e+01 1.000000000000e+00 
1.369724455397e+01 1.000000000000e+00 
1.402215503337e+01 1.000000000000e+00 
1.434381640631e+01 1.000000000000e+00 
1.466226116587e+01 1.000000000000e+00 
1.497752147876e+01 1.000000000000e+00 
1.528962918890e+01 1.000000000000e+00 
1.559861582076e+01 1.000000000000e+00 
1.590451258585e+01 1.000000000000e+00 
1.620735038291e+01 1.000000000000e+00 
1.650715980126e+01 1.000000000000e+00 
1.680397112688e+01 1.000000000000e+00 
1.709781433961e+01 1.000000000000e+00 
1.738871911921e+01 1.000000000000e+00 
1.767671485134e+01 1.000000000000e+00 
1.796183062747e+01 1.000000000000e+00 
1.824409524482e+01 1.000000000000e+00 
1.852353721519e+01 1.000000000000e+00 
1.880018476764e+01 1.000000000000e+00 
1.907406584525e+01 1.000000000000e+00 
1.934520811079e+01 1.000000000000e+00 
1.961363895232e+01 1.000000000000e+00 
1.987938548567e+01 1.000000000000e+00 
2.014247455395e+01 1.000000000000e+00 
2.040293272997e+01 1.000000000000e+00 
2.066078632467e+01 1.000000000000e+00 
2.091606138624e+01 1.000000000000e+00 
2.116878369686e+01 1.000000000000e+00 
2.141897878317e+01 1.000000000000e+00 
2.166667191915e+01 1.000000000000e+00 
2.191188812483e+01 1.000000000000e+00 
2.215465216843e+01 1.000000000000e+00 
2.239498857147e+01 1.000000000000e+00 
2.263292161056e+01 1.000000000000e+00 
2.286847531945e+01 1.000000000000e+00 
2.310167349079e+01 1.000000000000e+00 
2.333253967804e+01 1.000000000000e+00 
2.356109720316e+01 1.000000000000e+00 
2.378736915530e+01 1.000000000000e+00 
2.401137838949e+01 1.000000000000e+00 
2.423314753134e+01 1.000000000000e+00 
2.445269898152e+01 1.000000000000e+00 
2.467005491734e+01 1.000000000000e+00 
2.488523729422e+01 1.000000000000e+00 
2.509826784711e+01 1.000000000000e+00 
2.530916809488e+01 1.000000000000e+00 
2.551795933881e+01 1.000000000000e+00 
2.572466266963e+01 1.000000000000e+00 
2.592929896600e+01 1.000000000000e+00 
2.613188889870e+01 1.000000000000e+00 
2.633245293470e+01 1.000000000000e+00 
2.653101132936e+01 1.000000000000e+00 
2.672758413963e+01 1.000000000000e+00 
2.692219122191e+01 1.000000000000e+00 
2.711485223325e+01 1.000000000000e+00 
2.730558663516e+01 1.000000000000e+00 
2.749441369170e+01 1.000000000000e+00 
2.768135247625e+01 1.000000000000e+00 
2.786642187247e+01 1.000000000000e+00 
2.804964057500e+01 1.000000000000e+00 
2.823102709034e+01 1.000000000000e+00 
2.841059974053e+01 1.000000000000e+00 
2.858837666689e+01 1.000000000000e+00 
2.876437582464e+01 1.000000000000e+00 
2.893861498963e+01 1.000000000000e+00 
2.911111176485e+01 1.000000000000e+00 
2.928188357197e+01 1.000000000000e+00 
2.945094766098e+01 1.000000000000e+00 
2.961832111052e+01 1.000000000000e+00 
2.978402082546e+01 1.000000000000e+00 
2.994806354328e+01 1.000000000000e+00 
3.011046583142e+01 1.000000000000e+00 
3.027124409672e+01 1.000000000000e+00 
3.043041457957e+01 1.000000000000e+00 
3.058799335738e+01 1.000000000000e+00 
3.074399634768e+01 1.000000000000e+00 
3.089843930846e+01 1.000000000000e+00 
3.105133784124e+01 1.000000000000e+00 
3.120270738832e+01 1.000000000000e+00 
3.135256323889e+01 1.000000000000e+00 
3.150092052907e+01 1.000000000000e+00 
3.164779424804e+01 1.000000000000e+00 
3.179319923193e+01 1.000000000000e+00 
3.193715016398e+01 1.000000000000e+00 
3.207966158651e+01 1.000000000000e+00 
3.222074789468e+01 1.000000000000e+00 
3.236042333961e+01 1.000000000000e+00 
3.249870203111e+01 1.000000000000e+00 
3.263559793463e+01 1.000000000000e+00 
3.277112488002e+01 1.000000000000e+00 
3.290529655535e+01 1.000000000000e+00 
3.303812651273e+01 1.000000000000e+00 
3.316962817094e+01 1.000000000000e+00 
3.329981481222e+01 1.000000000000e+00 
3.342869958796e+01 1.000000000000e+00 
3.355629551528e+01 1.000000000000e+00 
3.368261548278e+01 1.000000000000e+00 
3.380767225007e+01 1.000000000000e+00 
3.393147845034e+01 1.000000000000e+00 
3.405404658994e+01 1.000000000000e+00 
3.417538904792e+01 1.000000000000e+00 
3.429551808150e+01 1.000000000000e+00 
3.441444582560e+01 1.000000000000e+00 
3.453218429222e+01 1.000000000000e+00 
3.464874537296e+01 1.000000000000e+00 
3.476414084434e+01 1.000000000000e+00 
3.487838236120e+01 1.000000000000e+00 
3.499148146213e+01 1.000000000000e+00 
3.510344957168e+01 1.000000000000e+00 
3.521429799980e+01 1.000000000000e+00 
3.532403794400e+01 1.000000000000e+00 
3.543268048871e+01 1.000000000000e+00 
3.554023660747e+01 1.000000000000e+00 
3.564671716519e+01 1.000000000000e+00 
3.575213291727e+01 1.000000000000e+00 
3.585649451188e+01 1.000000000000e+00 
3.595981249202e+01 1.000000000000e+00 
3.606209729169e+01 1.000000000000e+00 
3.616335924104e+01 1.000000000000e+00 
3.626360857141e+01 1.000000000000e+00 
3.636285540837e+01 1.000000000000e+00 
3.646110977685e+01 1.000000000000e+00 
3.655838160307e+01 1.000000000000e+00 
3.665468071061e+01 1.000000000000e+00 
3.675001682841e+01 1.000000000000e+00 
3.684439958667e+01 1.000000000000e+00 
3.693783851586e+01 1.000000000000e+00 
3.703034305466e+01 1.000000000000e+00 
3.712192254881e+01 1.000000000000e+00 
3.721258624699e+01 1.000000000000e+00 
3.730234330879e+01 1.000000000000e+00 
3.739120280040e+01 1.000000000000e+00 
3.747917369664e+01 1.000000000000e+00 
3.756626488560e+01 1.000000000000e+00 
3.765248516150e+01 1.000000000000e+00 
3.773784323258e+01 1.000000000000e+00 
3.782234772267e+01 1.000000000000e+00 
3.790600717004e+01 1.000000000000e+00 
3.798883002307e+01 1.000000000000e+00 
3.807082464508e+01 1.000000000000e+00 
3.815199932188e+01 1.000000000000e+00 
3.823236225151e+01 1.000000000000e+00 
3.831192155190e+01 1.000000000000e+00 
3.839068525948e+01 1.000000000000e+00 
3.846866133085e+01 1.000000000000e+00 
3.854585764132e+01 1.000000000000e+00 
3.862228198662e+01 1.000000000000e+00 
3.869794209036e+01 1.000000000000e+00 
3.877284559360e+01 1.000000000000e+00 
3.884700006248e+01 1.000000000000e+00 
3.892041298666e+01 1.000000000000e+00 
3.899309178093e+01 1.000000000000e+00 
3.906504378659e+01 1.000000000000e+00 
3.913627627307e+01 1.000000000000e+00 
3.920679643622e+01 1.000000000000e+00 
3.927661139697e+01 1.000000000000e+00 
3.934572820861e+01 1.000000000000e+00 
3.941415385231e+01 1.000000000000e+00 
3.948189523848e+01 1.000000000000e+00 
3.954895921123e+01 1.000000000000e+00 
3.961535254363e+01 1.000000000000e+00 
3.968108194226e+01 1.000000000000e+00 
3.974615404836e+01 1.000000000000e+00 
3.981057543334e+01 1.000000000000e+00 
3.987435260302e+01 1.000000000000e+00 
3.993749199903e+01 1.000000000000e+00 
4.000000000000e+01 1.000000000000e+00 
 TITLE = "Profiles along polylines"
 VARIABLES = "DIST" "SATURATION1" 
 ZONE T="TIME=1.797693134862e+308"
0.000000000000e+00 1.000000000000e+00 
4.618829203569e-01 1.000000000000e+00 
9.191470120950e-01 1.000000000000e+00 
1.371838465678e+00 1.000000000000e+00 
1.820003006032e+00 1.000000000000e+00 
2.263685898897e+00 1.000000000000e+00 
2.702931962895e+00 1.000000000000e+00 
3.137785566562e+00 1.000000000000e+00 
3.568290634397e+00 1.000000000000e+00 
3.994490652667e+00 1.000000000000e+00 
4.416428669260e+00 1.000000000000e+00 
4.834147305392e+00 1.000000000000e+00 
5.247688755142e+00 1.000000000000e+00 
5.657094791088e+00 1.000000000000e+00 
6.062406766640e+00 1.000000000000e+00 
6.463665621544e+00 1.000000000000e+00 
6.860911890009e+00 1.000000000000e+00 
7.254185696981e+00 1.000000000000e+00 
7.643526763267e+00 1.000000000000e+00 
8.028974416599e+00 1.000000000000e+00 
8.410567593464e+00 1.000000000000e+00 
8.788344838065e+00 1.000000000000e+00 
9.162344310086e+00 1.000000000000e+00 
9.532603789411e+00 1.000000000000e+00 
9.899160674727e+00 1.000000000000e+00 
1.026205199119e+01 1.000000000000e+00 
1.062131439479e+01 1.000000000000e+00 
1.097698417388e+01 1.000000000000e+00 
1.132909725638e+01 1.000000000000e+00 
1.167768920815e+01 1.000000000000e+00 
1.202279524015e+01 1.000000000000e+00 
1.236445021252e+01 1.000000000000e+00 
1.270268863568e+01 1.000000000000e+00 
1.303754467427e+01 1.000000000000e+00 
1.336905215110e+01 1.000000000000e+00 
1.369724455397e+01 1.000000000000e+00 
1.402215503337e+01 1.000000000000e+00 
1.434381640631e+01 1.000000000000e+00 
1.466226116587e+01 1.000000000000e+00 
1.497752147876e+01 1.000000000000e+00 
1.528962918890e+01 1.000000000000e+00 
1.559861582076e+01 1.000000000000e+00 
1.590451258585e+01 1.000000000000e+00 
1.620735038291e+01 1.000000000000e+00 
1.650715980126e+01 1.000000000000e+00 
1.680397112688e+01 1.000000000000e+00 
1.709781433961e+01 1.000000000000e+00 
1.738871911921e+01 1.000000000000e+00 
1.767671485134e+01 1.000000000000e+00 
1.796183062747e+01 1.000000000000e+00 
1.824409524482e+01 1.000000000000e+00 
1.852353721519e+01 1.000000000000e+00 
1.880018476764e+01 1.000000000000e+00 
1.907406584525e+01 1.000000000000e+00 
1.934520811079e+01 1.000000000000e+00 
1.961363895232e+01 1.000000000000e+00 
1.987938548567e+01 1.000000000000e+00 
2.014247455395e+01 1.000000000000e+00 
2.040293272997e+01 1.000000000000e+00 
2.066078632467e+01 9.999997061549e-01 
2.091606138624e+01 1.000000000000e+00 
2.116878369686e+01 9.536592115790e-01 
2.141897878317e+01 8.994165692625e-01 
2.166667191915e+01 8.510717772271e-01 
2.191188812483e+01 8.096194170650e-01 
2.215465216843e+01 7.742480489501e-01 
2.239498857147e+01 7.438905934302e-01 
2.263292161056e+01 7.176022009562e-01 
2.286847531945e+01 6.946206162501e-01 
2.310167349079e+01 6.743470474085e-01 
2.333253967804e+01 6.563129817791e-01 
2.356109720316e+01 6.401500127737e-01 
2.378736915530e+01 6.255659443105e-01 
2.401137838949e+01 6.123267113769e-01 
2.423314753134e+01 6.002428952777e-01 
2.445269898152e+01 5.891596775503e-01 
2.467005491734e+01 5.789493186220e-01 
2.488523729422e+01 5.695054823732e-01 
2.509826784711e+01 5.607389144496e-01 
2.530916809488e+01 5.525741197684e-01 
2.551795933881e+01 5.449467840153e-01 
2.572466266963e+01 5.378017533617e-01 
2.592929896600e+01 5.310914378652e-01 
2.613188889870e+01 5.247745384831e-01 
2.633245293470e+01 5.188150240332e-01 
2.653101132936e+01 5.131813030413e-01 
2.672758413963e+01 5.078455476536e-01 
2.692219122191e+01 5.027831388081e-01 
2.711485223325e+01 4.979722075582e-01 
2.730558663516e+01 4.933932535917e-01 
2.749441369170e+01 4.890288263233e-01 
2.768135247625e+01 4.848632565426e-01 
2.786642187247e+01 4.808824297474e-01 
2.804964057500e+01 4.770735936468e-01 
2.823102709034e+01 4.734251939319e-01 
2.841059974053e+01 4.699267334973e-01 
2.858837666689e+01 4.665686513189e-01 
2.876437582464e+01 4.633422179959e-01 
2.893861498963e+01 4.602394449684e-01 
2.911111176485e+01 4.572530055391e-01 
2.928188357197e+01 4.543761661713e-01 
2.945094766098e+01 4.516027260203e-01 
2.961832111052e+01 4.489269639589e-01 
2.978402082546e+01 4.463435919409e-01 
2.994806354328e+01 4.438477136581e-01 
3.011046583142e+01 4.414347880431e-01 
3.027124409672e+01 4.391005966758e-01 
3.043041457957e+01 4.368412149731e-01 
3.058799335738e+01 4.346529863432e-01 
3.074399634768e+01 4.325324990664e-01 
3.089843930846e+01 4.304765656026e-01 
3.105133784124e+01 4.284822039625e-01 
3.120270738832e+01 4.265466210085e-01 
3.135256323889e+01 4.246671972791e-01 
3.150092052907e+01 4.228414733465e-01 
3.164779424804e+01 4.210671373919e-01 
3.179319923193e+01 4.193420140777e-01 
3.193715016398e+01 4.176640543640e-01 
3.207966158651e+01 4.160313261063e-01 
3.222074789468e+01 4.144420056880e-01 
3.236042333961e+01 4.128943702787e-01 
3.249870203111e+01 4.113867907592e-01 
3.263559793463e+01 4.099177253056e-01 
3.277112488002e+01 4.084857133808e-01 
3.290529655535e+01 4.070893703751e-01 
3.303812651273e+01 4.057273825536e-01 
3.316962817094e+01 4.043985024389e-01 
3.329981481222e+01 4.031015446127e-01 
3.342869958796e+01 4.018353817554e-01 
3.355629551528e+01 4.005989410734e-01 
3.368261548278e+01 3.993912009094e-01 
3.380767225007e+01 3.982111876611e-01 
3.393147845034e+01 3.970579728969e-01 
3.405404658994e+01 3.959306707078e-01 
3.417538904792e+01 3.948284352473e-01 
3.429551808150e+01 3.937504583915e-01 
3.441444582560e+01 3.926959676147e-01 
3.453218429222e+01 3.916642240101e-01 
3.464874537296e+01 3.906545204195e-01 
3.476414084434e+01 3.896661796620e-01 
3.487838236120e+01 3.886985529822e-01 
3.499148146213e+01 3.877510184975e-01 
3.510344957168e+01 3.868229797728e-01 
3.521429799980e+01 3.859138645093e-01 
3.532403794400e+01 3.850231232924e-01 
3.543268048871e+01 3.841502284411e-01 
3.554023660747e+01 3.832946729054e-01 
3.564671716519e+01 3.824559692301e-01 
3.575213291727e+01 3.816336486054e-01 
3.585649451188e+01 3.808272599502e-01 
3.595981249202e+01 3.800363690503e-01 
3.606209729169e+01 3.792605577914e-01 
3.616335924104e+01 3.784994233696e-01 
3.626360857141e+01 3.777525775473e-01 
3.636285540837e+01 3.770196460395e-01 
3.646110977685e+01 3.763002678457e-01 
3.655838160307e+01 3.755940946430e-01 
3.665468071061e+01 3.749007902526e-01 
3.675001682841e+01 3.742200300528e-01 
3.684439958667e+01 3.735515005065e-01 
3.693783851586e+01 3.728948986933e-01 
3.703034305466e+01 3.722499318038e-01 
3.712192254881e+01 3.716163167234e-01 
3.721258624699e+01 3.709937796566e-01 
3.730234330879e+01 3.703820556901e-01 
3.739120280040e+01 3.697808884590e-01 
3.747917369664e+01 3.691900297889e-01 
3.756626488560e+01 3.686092393377e-01 
3.765248516150e+01 3.680382843321e-01 
3.773784323258e+01 3.674769392200e-01 
3.782234772267e+01 3.669249853795e-01 
3.790600717004e+01 3.663822108599e-01 
3.798883002307e+01 3.658484101554e-01 
3.807082464508e+01 3.653233839310e-01 
3.815199932188e+01 3.648069387441e-01 
3.823236225151e+01 3.642988868908e-01 
3.831192155190e+01 3.637990461471e-01 
3.839068525948e+01 3.633072395787e-01 
3.846866133085e+01 3.628232953396e-01 
3.854585764132e+01 3.623470464998e-01 
3.862228198662e+01 3.618783308606e-01 
3.869794209036e+01 3.614169907434e-01 
3.877284559360e+01 3.609628728957e-01 
3.884700006248e+01 3.605158282924e-01 
3.892041298666e+01 3.600757120013e-01 
3.899309178093e+01 3.596423830345e-01 
3.906504378659e+01 3.592157042081e-01 
3.913627627307e+01 3.587955420064e-01 
3.920679643622e+01 3.583817664701e-01 
3.927661139697e+01 3.579742510887e-01 
3.934572820861e+01 3.575728726462e-01 
3.941415385231e+01 3.571775111408e-01 
3.948189523848e+01 3.567880496749e-01 
3.954895921123e+01 3.564043743320e-01 
3.961535254363e+01 3.560263741092e-01 
3.968108194226e+01 3.556539408018e-01 
3.974615404836e+01 3.552869689102e-01 
3.981057543334e+01 3.549253555826e-01 
3.987435260302e+01 3.545690005109e-01 
3.993749199903e+01 3.542178058468e-01 
4.000000000000e+01 3.538716751666e-01 
