 TITLE = "Profiles along polylines"
 VARIABLES = "DIST" "SATURATION1" 
 ZONE T="TIME=0.000000000000e+00"
0.000000000000e+00 1.000000000000e+00 
0.000000000000e+00 1.000000000000e+00 
4.618829203569e-01 1.000000000000e+00 
4.618829203569e-01 1.000000000000e+00 
9.191470120950e-01 1.000000000000e+00 
9.191470120950e-01 1.000000000000e+00 
1.371838465678e+00 1.000000000000e+00 
1.371838465678e+00 1.000000000000e+00 
1.820003006032e+00 1.000000000000e+00 
1.820003006032e+00 1.000000000000e+00 
2.263685898897e+00 1.000000000000e+00 
2.263685898897e+00 1.000000000000e+00 
2.702931962895e+00 1.000000000000e+00 
2.702931962895e+00 1.000000000000e+00 
3.137785566562e+00 1.000000000000e+00 
3.137785566562e+00 1.000000000000e+00 
3.568290634397e+00 1.000000000000e+00 
3.568290634397e+00 1.000000000000e+00 
3.994490652667e+00 1.000000000000e+00 
3.994490652667e+00 1.000000000000e+00 
4.416428669260e+00 1.000000000000e+00 
4.416428669260e+00 1.000000000000e+00 
4.834147305392e+00 1.000000000000e+00 
4.834147305392e+00 1.000000000000e+00 
5.247688755142e+00 1.000000000000e+00 
5.247688755142e+00 1.000000000000e+00 
5.657094791088e+00 1.000000000000e+00 
5.657094791088e+00 1.000000000000e+00 
6.062406766640e+00 1.000000000000e+00 
6.062406766640e+00 1.000000000000e+00 
6.463665621544e+00 1.000000000000e+00 
6.463665621544e+00 1.000000000000e+00 
6.860911890009e+00 1.000000000000e+00 
6.860911890009e+00 1.000000000000e+00 
7.254185696981e+00 1.000000000000e+00 
7.254185696981e+00 1.000000000000e+00 
7.643526763267e+00 1.000000000000e+00 
7.643526763267e+00 1.000000000000e+00 
8.028974416599e+00 1.000000000000e+00 
8.028974416599e+00 1.000000000000e+00 
8.410567593464e+00 1.000000000000e+00 
8.410567593464e+00 1.000000000000e+00 
8.788344838065e+00 1.000000000000e+00 
8.788344838065e+00 1.000000000000e+00 
9.162344310086e+00 1.000000000000e+00 
9.162344310086e+00 1.000000000000e+00 
9.532603789411e+00 1.000000000000e+00 
9.532603789411e+00 1.000000000000e+00 
9.899160674727e+00 1.000000000000e+00 
9.899160674727e+00 1.000000000000e+00 
1.026205199119e+01 1.000000000000e+00 
1.026205199119e+01 1.000000000000e+00 
1.062131439479e+01 1.000000000000e+00 
1.062131439479e+01 1.000000000000e+00 
1.097698417388e+01 1.000000000000e+00 
1.097698417388e+01 1.000000000000e+00 
1.132909725638e+01 1.000000000000e+00 
1.132909725638e+01 1.000000000000e+00 
1.167768920815e+01 1.000000000000e+00 
1.167768920815e+01 1.000000000000e+00 
1.202279524015e+01 1.000000000000e+00 
1.202279524015e+01 1.000000000000e+00 
1.236445021252e+01 1.000000000000e+00 
1.236445021252e+01 1.000000000000e+00 
1.270268863568e+01 1.000000000000e+00 
1.270268863568e+01 1.000000000000e+00 
1.303754467427e+01 1.000000000000e+00 
1.303754467427e+01 1.000000000000e+00 
1.336905215110e+01 1.000000000000e+00 
1.336905215110e+01 1.000000000000e+00 
1.369724455397e+01 1.000000000000e+00 
1.369724455397e+01 1.000000000000e+00 
1.402215503337e+01 1.000000000000e+00 
1.402215503337e+01 1.000000000000e+00 
1.434381640631e+01 1.000000000000e+00 
1.434381640631e+01 1.000000000000e+00 
1.466226116587e+01 1.000000000000e+00 
1.466226116587e+01 1.000000000000e+00 
1.497752147876e+01 1.000000000000e+00 
1.497752147876e+01 1.000000000000e+00 
1.528962918890e+01 1.000000000000e+00 
1.528962918890e+01 1.000000000000e+00 
1.559861582076e+01 1.000000000000e+00 
1.559861582076e+01 1.000000000000e+00 
1.590451258585e+01 1.000000000000e+00 
1.590451258585e+01 1.000000000000e+00 
1.620735038291e+01 1.000000000000e+00 
1.620735038291e+01 1.000000000000e+00 
1.650715980126e+01 1.000000000000e+00 
1.650715980126e+01 1.000000000000e+00 
1.680397112688e+01 1.000000000000e+00 
1.680397112688e+01 1.000000000000e+00 
1.709781433961e+01 1.000000000000e+00 
1.709781433961e+01 1.000000000000e+00 
1.738871911921e+01 1.000000000000e+00 
1.738871911921e+01 1.000000000000e+00 
1.767671485134e+01 1.000000000000e+00 
1.767671485134e+01 1.000000000000e+00 
1.796183062747e+01 1.000000000000e+00 
1.796183062747e+01 1.000000000000e+00 
1.824409524482e+01 1.000000000000e+00 
1.824409524482e+01 1.000000000000e+00 
1.852353721519e+01 1.000000000000e+00 
1.852353721519e+01 1.000000000000e+00 
1.880018476764e+01 1.000000000000e+00 
1.880018476764e+01 1.000000000000e+00 
1.907406584525e+01 1.000000000000e+00 
1.907406584525e+01 1.000000000000e+00 
1.934520811079e+01 1.000000000000e+00 
1.934520811079e+01 1.000000000000e+00 
1.961363895232e+01 1.000000000000e+00 
1.961363895232e+01 1.000000000000e+00 
1.987938548567e+01 1.000000000000e+00 
1.987938548567e+01 1.000000000000e+00 
2.014247455395e+01 1.000000000000e+00 
2.014247455395e+01 1.000000000000e+00 
2.040293272997e+01 1.000000000000e+00 
2.040293272997e+01 1.000000000000e+00 
2.066078632467e+01 1.000000000000e+00 
2.066078632467e+01 1.000000000000e+00 
2.091606138624e+01 1.000000000000e+00 
2.091606138624e+01 1.000000000000e+00 
2.116878369686e+01 1.000000000000e+00 
2.116878369686e+01 1.000000000000e+00 
2.141897878317e+01 1.000000000000e+00 
2.141897878317e+01 1.000000000000e+00 
2.166667191915e+01 1.000000000000e+00 
2.166667191915e+01 1.000000000000e+00 
2.191188812483e+01 1.000000000000e+00 
2.191188812483e+01 1.000000000000e+00 
2.215465216843e+01 1.000000000000e+00 
2.215465216843e+01 1.000000000000e+00 
2.239498857147e+01 1.000000000000e+00 
2.239498857147e+01 1.000000000000e+00 
2.263292161056e+01 1.000000000000e+00 
2.263292161056e+01 1.000000000000e+00 
2.286847531945e+01 1.000000000000e+00 
2.286847531945e+01 1.000000000000e+00 
2.310167349079e+01 1.000000000000e+00 
2.310167349079e+01 1.000000000000e+00 
2.333253967804e+01 1.000000000000e+00 
2.333253967804e+01 1.000000000000e+00 
2.356109720316e+01 1.000000000000e+00 
2.356109720316e+01 1.000000000000e+00 
2.378736915530e+01 1.000000000000e+00 
2.378736915530e+01 1.000000000000e+00 
2.401137838949e+01 1.000000000000e+00 
2.401137838949e+01 1.000000000000e+00 
2.423314753134e+01 1.000000000000e+00 
2.423314753134e+01 1.000000000000e+00 
2.445269898152e+01 1.000000000000e+00 
2.445269898152e+01 1.000000000000e+00 
2.467005491734e+01 1.000000000000e+00 
2.467005491734e+01 1.000000000000e+00 
2.488523729422e+01 1.000000000000e+00 
2.488523729422e+01 1.000000000000e+00 
2.509826784711e+01 1.000000000000e+00 
2.509826784711e+01 1.000000000000e+00 
2.530916809488e+01 1.000000000000e+00 
2.530916809488e+01 1.000000000000e+00 
2.551795933881e+01 1.000000000000e+00 
2.551795933881e+01 1.000000000000e+00 
2.572466266963e+01 1.000000000000e+00 
2.572466266963e+01 1.000000000000e+00 
2.592929896600e+01 1.000000000000e+00 
2.592929896600e+01 1.000000000000e+00 
2.613188889870e+01 1.000000000000e+00 
2.613188889870e+01 1.000000000000e+00 
2.633245293470e+01 1.000000000000e+00 
2.633245293470e+01 1.000000000000e+00 
2.653101132936e+01 1.000000000000e+00 
2.653101132936e+01 1.000000000000e+00 
2.672758413963e+01 1.000000000000e+00 
2.672758413963e+01 1.000000000000e+00 
2.692219122191e+01 1.000000000000e+00 
2.692219122191e+01 1.000000000000e+00 
2.711485223325e+01 1.000000000000e+00 
2.711485223325e+01 1.000000000000e+00 
2.730558663516e+01 1.000000000000e+00 
2.730558663516e+01 1.000000000000e+00 
2.749441369170e+01 1.000000000000e+00 
2.749441369170e+01 1.000000000000e+00 
2.768135247625e+01 1.000000000000e+00 
2.768135247625e+01 1.000000000000e+00 
2.786642187247e+01 1.000000000000e+00 
2.786642187247e+01 1.000000000000e+00 
2.804964057500e+01 1.000000000000e+00 
2.804964057500e+01 1.000000000000e+00 
2.823102709034e+01 1.000000000000e+00 
2.823102709034e+01 1.000000000000e+00 
2.841059974053e+01 1.000000000000e+00 
2.841059974053e+01 1.000000000000e+00 
2.858837666689e+01 1.000000000000e+00 
2.858837666689e+01 1.000000000000e+00 
2.876437582464e+01 1.000000000000e+00 
2.876437582464e+01 1.000000000000e+00 
2.893861498963e+01 1.000000000000e+00 
2.893861498963e+01 1.000000000000e+00 
2.911111176485e+01 1.000000000000e+00 
2.911111176485e+01 1.000000000000e+00 
2.928188357197e+01 1.000000000000e+00 
2.928188357197e+01 1.000000000000e+00 
2.945094766098e+01 1.000000000000e+00 
2.945094766098e+01 1.000000000000e+00 
2.961832111052e+01 1.000000000000e+00 
2.961832111052e+01 1.000000000000e+00 
2.978402082546e+01 1.000000000000e+00 
2.978402082546e+01 1.000000000000e+00 
2.994806354328e+01 1.000000000000e+00 
2.994806354328e+01 1.000000000000e+00 
3.011046583142e+01 1.000000000000e+00 
3.011046583142e+01 1.000000000000e+00 
3.027124409672e+01 1.000000000000e+00 
3.027124409672e+01 1.000000000000e+00 
3.043041457957e+01 1.000000000000e+00 
3.043041457957e+01 1.000000000000e+00 
3.058799335738e+01 1.000000000000e+00 
3.058799335738e+01 1.000000000000e+00 
3.074399634768e+01 1.000000000000e+00 
3.074399634768e+01 1.000000000000e+00 
3.089843930846e+01 1.000000000000e+00 
3.089843930846e+01 1.000000000000e+00 
3.105133784124e+01 1.000000000000e+00 
3.105133784124e+01 1.000000000000e+00 
3.120270738832e+01 1.000000000000e+00 
3.120270738832e+01 1.000000000000e+00 
3.135256323889e+01 1.000000000000e+00 
3.135256323889e+01 1.000000000000e+00 
3.150092052907e+01 1.000000000000e+00 
3.150092052907e+01 1.000000000000e+00 
3.164779424804e+01 1.000000000000e+00 
3.164779424804e+01 1.000000000000e+00 
3.179319923193e+01 1.000000000000e+00 
3.179319923193e+01 1.000000000000e+00 
3.193715016398e+01 1.000000000000e+00 
3.193715016398e+01 1.000000000000e+00 
3.207966158651e+01 1.000000000000e+00 
3.207966158651e+01 1.000000000000e+00 
3.222074789468e+01 1.000000000000e+00 
3.222074789468e+01 1.000000000000e+00 
3.236042333961e+01 1.000000000000e+00 
3.236042333961e+01 1.000000000000e+00 
3.249870203111e+01 1.000000000000e+00 
3.249870203111e+01 1.000000000000e+00 
3.263559793463e+01 1.000000000000e+00 
3.263559793463e+01 1.000000000000e+00 
3.277112488002e+01 1.000000000000e+00 
3.277112488002e+01 1.000000000000e+00 
3.290529655535e+01 1.000000000000e+00 
3.290529655535e+01 1.000000000000e+00 
3.303812651273e+01 1.000000000000e+00 
3.303812651273e+01 1.000000000000e+00 
3.316962817094e+01 1.000000000000e+00 
3.316962817094e+01 1.000000000000e+00 
3.329981481222e+01 1.000000000000e+00 
3.329981481222e+01 1.000000000000e+00 
3.342869958796e+01 1.000000000000e+00 
3.342869958796e+01 1.000000000000e+00 
3.355629551528e+01 1.000000000000e+00 
3.355629551528e+01 1.000000000000e+00 
3.368261548278e+01 1.000000000000e+00 
3.368261548278e+01 1.000000000000e+00 
3.380767225007e+01 1.000000000000e+00 
3.380767225007e+01 1.000000000000e+00 
3.393147845034e+01 1.000000000000e+00 
3.393147845034e+01 1.000000000000e+00 
3.405404658994e+01 1.000000000000e+00 
3.405404658994e+01 1.000000000000e+00 
3.417538904792e+01 1.000000000000e+00 
3.417538904792e+01 1.000000000000e+00 
3.429551808150e+01 1.000000000000e+00 
3.429551808150e+01 1.000000000000e+00 
3.441444582560e+01 1.000000000000e+00 
3.441444582560e+01 1.000000000000e+00 
3.453218429222e+01 1.000000000000e+00 
3.453218429222e+01 1.000000000000e+00 
3.464874537296e+01 1.000000000000e+00 
3.464874537296e+01 1.000000000000e+00 
3.476414084434e+01 1.000000000000e+00 
3.476414084434e+01 1.000000000000e+00 
3.487838236120e+01 1.000000000000e+00 
3.487838236120e+01 1.000000000000e+00 
3.499148146213e+01 1.000000000000e+00 
3.499148146213e+01 1.000000000000e+00 
3.510344957168e+01 1.000000000000e+00 
3.510344957168e+01 1.000000000000e+00 
3.521429799980e+01 1.000000000000e+00 
3.521429799980e+01 1.000000000000e+00 
3.532403794400e+01 1.000000000000e+00 
3.532403794400e+01 1.000000000000e+00 
3.543268048871e+01 1.000000000000e+00 
3.543268048871e+01 1.000000000000e+00 
3.554023660747e+01 1.000000000000e+00 
3.554023660747e+01 1.000000000000e+00 
3.564671716519e+01 1.000000000000e+00 
3.564671716519e+01 1.000000000000e+00 
3.575213291727e+01 1.000000000000e+00 
3.575213291727e+01 1.000000000000e+00 
3.585649451188e+01 1.000000000000e+00 
3.585649451188e+01 1.000000000000e+00 
3.595981249202e+01 1.000000000000e+00 
3.595981249202e+01 1.000000000000e+00 
3.606209729169e+01 1.000000000000e+00 
3.606209729169e+01 1.000000000000e+00 
3.616335924104e+01 1.000000000000e+00 
3.616335924104e+01 1.000000000000e+00 
3.626360857141e+01 1.000000000000e+00 
3.626360857141e+01 1.000000000000e+00 
3.636285540837e+01 1.000000000000e+00 
3.636285540837e+01 1.000000000000e+00 
3.646110977685e+01 1.000000000000e+00 
3.646110977685e+01 1.000000000000e+00 
3.655838160307e+01 1.000000000000e+00 
3.655838160307e+01 1.000000000000e+00 
3.665468071061e+01 1.000000000000e+00 
3.665468071061e+01 1.000000000000e+00 
3.675001682841e+01 1.000000000000e+00 
3.675001682841e+01 1.000000000000e+00 
3.684439958667e+01 1.000000000000e+00 
3.684439958667e+01 1.000000000000e+00 
3.693783851586e+01 1.000000000000e+00 
3.693783851586e+01 1.000000000000e+00 
3.703034305466e+01 1.000000000000e+00 
3.703034305466e+01 1.000000000000e+00 
3.712192254881e+01 1.000000000000e+00 
3.712192254881e+01 1.000000000000e+00 
3.721258624699e+01 1.000000000000e+00 
3.721258624699e+01 1.000000000000e+00 
3.730234330879e+01 1.000000000000e+00 
3.730234330879e+01 1.000000000000e+00 
3.739120280040e+01 1.000000000000e+00 
3.739120280040e+01 1.000000000000e+00 
3.747917369664e+01 1.000000000000e+00 
3.747917369664e+01 1.000000000000e+00 
3.756626488560e+01 1.000000000000e+00 
3.756626488560e+01 1.000000000000e+00 
3.765248516150e+01 1.000000000000e+00 
3.765248516150e+01 1.000000000000e+00 
3.773784323258e+01 1.000000000000e+00 
3.773784323258e+01 1.000000000000e+00 
3.782234772267e+01 1.000000000000e+00 
3.782234772267e+01 1.000000000000e+00 
3.790600717004e+01 1.000000000000e+00 
3.790600717004e+01 1.000000000000e+00 
3.798883002307e+01 1.000000000000e+00 
3.798883002307e+01 1.000000000000e+00 
3.807082464508e+01 1.000000000000e+00 
3.807082464508e+01 1.000000000000e+00 
3.815199932188e+01 1.000000000000e+00 
3.815199932188e+01 1.000000000000e+00 
3.823236225151e+01 1.000000000000e+00 
3.823236225151e+01 1.000000000000e+00 
3.831192155190e+01 1.000000000000e+00 
3.831192155190e+01 1.000000000000e+00 
3.839068525948e+01 1.000000000000e+00 
3.839068525948e+01 1.000000000000e+00 
3.846866133085e+01 1.000000000000e+00 
3.846866133085e+01 1.000000000000e+00 
3.854585764132e+01 1.000000000000e+00 
3.854585764132e+01 1.000000000000e+00 
3.862228198662e+01 1.000000000000e+00 
3.862228198662e+01 1.000000000000e+00 
3.869794209036e+01 1.000000000000e+00 
3.869794209036e+01 1.000000000000e+00 
3.877284559360e+01 1.000000000000e+00 
3.877284559360e+01 1.000000000000e+00 
3.884700006248e+01 1.000000000000e+00 
3.884700006248e+01 1.000000000000e+00 
3.892041298666e+01 1.000000000000e+00 
3.892041298666e+01 1.000000000000e+00 
3.899309178093e+01 1.000000000000e+00 
3.899309178093e+01 1.000000000000e+00 
3.906504378659e+01 1.000000000000e+00 
3.906504378659e+01 1.000000000000e+00 
3.913627627307e+01 1.000000000000e+00 
3.913627627307e+01 1.000000000000e+00 
3.920679643622e+01 1.000000000000e+00 
3.920679643622e+01 1.000000000000e+00 
3.927661139697e+01 1.000000000000e+00 
3.927661139697e+01 1.000000000000e+00 
3.934572820861e+01 1.000000000000e+00 
3.934572820861e+01 1.000000000000e+00 
3.941415385231e+01 1.000000000000e+00 
3.941415385231e+01 1.000000000000e+00 
3.948189523848e+01 1.000000000000e+00 
3.948189523848e+01 1.000000000000e+00 
3.954895921123e+01 1.000000000000e+00 
3.954895921123e+01 1.000000000000e+00 
3.961535254363e+01 1.000000000000e+00 
3.961535254363e+01 1.000000000000e+00 
3.968108194226e+01 1.000000000000e+00 
3.968108194226e+01 1.000000000000e+00 
3.974615404836e+01 1.000000000000e+00 
3.974615404836e+01 1.000000000000e+00 
3.981057543334e+01 1.000000000000e+00 
3.981057543334e+01 1.000000000000e+00 
3.987435260302e+01 1.000000000000e+00 
3.987435260302e+01 1.000000000000e+00 
3.993749199903e+01 1.000000000000e+00 
3.993749199903e+01 1.000000000000e+00 
4.000000000000e+01 1.000000000000e+00 
4.000000000000e+01 1.000000000000e+00 
 TITLE = "Profiles along polylines"
 VARIABLES = "DIST" "SATURATION1" 
 ZONE T="TIME=1.797693134862e+308"
0.000000000000e+00 1.000000000000e+00 
0.000000000000e+00 1.000000000000e+00 
4.618829203569e-01 1.000000000000e+00 
4.618829203569e-01 1.000000000000e+00 
9.191470120950e-01 1.000000000000e+00 
9.191470120950e-01 1.000000000000e+00 
1.371838465678e+00 1.000000000000e+00 
1.371838465678e+00 1.000000000000e+00 
1.820003006032e+00 1.000000000000e+00 
1.820003006032e+00 1.000000000000e+00 
2.263685898897e+00 1.000000000000e+00 
2.263685898897e+00 1.000000000000e+00 
2.702931962895e+00 1.000000000000e+00 
2.702931962895e+00 1.000000000000e+00 
3.137785566562e+00 1.000000000000e+00 
3.137785566562e+00 1.000000000000e+00 
3.568290634397e+00 1.000000000000e+00 
3.568290634397e+00 1.000000000000e+00 
3.994490652667e+00 1.000000000000e+00 
3.994490652667e+00 1.000000000000e+00 
4.416428669260e+00 1.000000000000e+00 
4.416428669260e+00 1.000000000000e+00 
4.834147305392e+00 1.000000000000e+00 
4.834147305392e+00 1.000000000000e+00 
5.247688755142e+00 1.000000000000e+00 
5.247688755142e+00 1.000000000000e+00 
5.657094791088e+00 1.000000000000e+00 
5.657094791088e+00 1.000000000000e+00 
6.062406766640e+00 1.000000000000e+00 
6.062406766640e+00 1.000000000000e+00 
6.463665621544e+00 1.000000000000e+00 
6.463665621544e+00 1.000000000000e+00 
6.860911890009e+00 1.000000000000e+00 
6.860911890009e+00 1.000000000000e+00 
7.254185696981e+00 1.000000000000e+00 
7.254185696981e+00 1.000000000000e+00 
7.643526763267e+00 1.000000000000e+00 
7.643526763267e+00 1.000000000000e+00 
8.028974416599e+00 1.000000000000e+00 
8.028974416599e+00 1.000000000000e+00 
8.410567593464e+00 1.000000000000e+00 
8.410567593464e+00 1.000000000000e+00 
8.788344838065e+00 1.000000000000e+00 
8.788344838065e+00 1.000000000000e+00 
9.162344310086e+00 1.000000000000e+00 
9.162344310086e+00 1.000000000000e+00 
9.532603789411e+00 1.000000000000e+00 
9.532603789411e+00 1.000000000000e+00 
9.899160674727e+00 1.000000000000e+00 
9.899160674727e+00 1.000000000000e+00 
1.026205199119e+01 1.000000000000e+00 
1.026205199119e+01 1.000000000000e+00 
1.062131439479e+01 1.000000000000e+00 
1.062131439479e+01 1.000000000000e+00 
1.097698417388e+01 1.000000000000e+00 
1.097698417388e+01 1.000000000000e+00 
1.132909725638e+01 1.000000000000e+00 
1.132909725638e+01 1.000000000000e+00 
1.167768920815e+01 1.000000000000e+00 
1.167768920815e+01 1.000000000000e+00 
1.202279524015e+01 1.000000000000e+00 
1.202279524015e+01 1.000000000000e+00 
1.236445021252e+01 1.000000000000e+00 
1.236445021252e+01 1.000000000000e+00 
1.270268863568e+01 1.000000000000e+00 
1.270268863568e+01 1.000000000000e+00 
1.303754467427e+01 1.000000000000e+00 
1.303754467427e+01 1.000000000000e+00 
1.336905215110e+01 1.000000000000e+00 
1.336905215110e+01 1.000000000000e+00 
1.369724455397e+01 1.000000000000e+00 
1.369724455397e+01 1.000000000000e+00 
1.402215503337e+01 1.000000000000e+00 
1.402215503337e+01 1.000000000000e+00 
1.434381640631e+01 1.000000000000e+00 
1.434381640631e+01 1.000000000000e+00 
1.466226116587e+01 1.000000000000e+00 
1.466226116587e+01 1.000000000000e+00 
1.497752147876e+01 1.000000000000e+00 
1.497752147876e+01 1.000000000000e+00 
1.528962918890e+01 1.000000000000e+00 
1.528962918890e+01 1.000000000000e+00 
1.559861582076e+01 1.000000000000e+00 
1.559861582076e+01 1.000000000000e+00 
1.590451258585e+01 1.000000000000e+00 
1.590451258585e+01 1.000000000000e+00 
1.620735038291e+01 1.000000000000e+00 
1.620735038291e+01 1.000000000000e+00 
1.650715980126e+01 1.000000000000e+00 
1.650715980126e+01 1.000000000000e+00 
1.680397112688e+01 1.000000000000e+00 
1.680397112688e+01 1.000000000000e+00 
1.709781433961e+01 1.000000000000e+00 
1.709781433961e+01 1.000000000000e+00 
1.738871911921e+01 1.000000000000e+00 
1.738871911921e+01 1.000000000000e+00 
1.767671485134e+01 1.000000000000e+00 
1.767671485134e+01 1.000000000000e+00 
1.796183062747e+01 1.000000000000e+00 
1.796183062747e+01 1.000000000000e+00 
1.824409524482e+01 1.000000000000e+00 
1.824409524482e+01 1.000000000000e+00 
1.852353721519e+01 1.000000000000e+00 
1.852353721519e+01 1.000000000000e+00 
1.880018476764e+01 1.000000000000e+00 
1.880018476764e+01 1.000000000000e+00 
1.907406584525e+01 1.000000000000e+00 
1.907406584525e+01 1.000000000000e+00 
1.934520811079e+01 1.000000000000e+00 
1.934520811079e+01 1.000000000000e+00 
1.961363895232e+01 1.000000000000e+00 
1.961363895232e+01 1.000000000000e+00 
1.987938548567e+01 9.784621409783e-01 
1.987938548567e+01 9.833979737491e-01 
2.014247455395e+01 9.204531482494e-01 
2.014247455395e+01 9.256943655103e-01 
2.040293272997e+01 8.671522943393e-01 
2.040293272997e+01 8.717980526813e-01 
2.066078632467e+01 8.214059264877e-01 
2.066078632467e+01 8.253892076001e-01 
2.091606138624e+01 7.826596166134e-01 
2.091606138624e+01 7.860690185353e-01 
2.116878369686e+01 7.497035640019e-01 
2.116878369686e+01 7.526442471300e-01 
2.141897878317e+01 7.214098736245e-01 
2.141897878317e+01 7.239722470933e-01 
2.166667191915e+01 6.968656627363e-01 
2.166667191915e+01 6.991215920762e-01 
2.191188812483e+01 6.753597908051e-01 
2.191188812483e+01 6.773652264343e-01 
2.215465216843e+01 6.563421111165e-01 
2.215465216843e+01 6.581405724551e-01 
2.239498857147e+01 6.393850184181e-01 
2.239498857147e+01 6.410105876350e-01 
2.263292161056e+01 6.241530659741e-01 
2.263292161056e+01 6.256326984768e-01 
2.286847531945e+01 6.103802334233e-01 
2.286847531945e+01 6.117354796322e-01 
2.310167349079e+01 5.978531956649e-01 
2.310167349079e+01 5.991014722798e-01 
2.333253967804e+01 5.863990223531e-01 
2.333253967804e+01 5.875545526322e-01 
2.356109720316e+01 5.758760830130e-01 
2.356109720316e+01 5.769505969698e-01 
2.378736915530e+01 5.661672637952e-01 
2.378736915530e+01 5.671705243617e-01 
2.401137838949e+01 5.571748568229e-01 
2.401137838949e+01 5.581150592051e-01 
2.423314753134e+01 5.488166690048e-01 
2.423314753134e+01 5.497007469001e-01 
2.445269898152e+01 5.410230286079e-01 
2.445269898152e+01 5.418568913801e-01 
2.467005491734e+01 5.337344592534e-01 
2.467005491734e+01 5.345231774256e-01 
2.488523729422e+01 5.268998549613e-01 
2.488523729422e+01 5.276478066406e-01 
2.509826784711e+01 5.204750351708e-01 
2.509826784711e+01 5.211860226537e-01 
2.530916809488e+01 5.144215906306e-01 
2.530916809488e+01 5.150989340370e-01 
2.551795933881e+01 5.087059543123e-01 
2.551795933881e+01 5.093525673638e-01 
2.572466266963e+01 5.032986473716e-01 
2.572466266963e+01 5.039170991737e-01 
2.592929896600e+01 4.981736631658e-01 
2.592929896600e+01 4.987662289298e-01 
2.613188889870e+01 4.933079603085e-01 
2.613188889870e+01 4.938766632661e-01 
2.633245293470e+01 4.886810429189e-01 
2.633245293470e+01 4.892276891722e-01 
2.653101132936e+01 4.842746112287e-01 
2.653101132936e+01 4.848008188972e-01 
2.672758413963e+01 4.800722684362e-01 
2.672758413963e+01 4.805794921648e-01 
2.692219122191e+01 4.760592741366e-01 
2.692219122191e+01 4.765488258123e-01 
2.711485223325e+01 4.722223355385e-01 
2.711485223325e+01 4.726954018870e-01 
2.730558663516e+01 4.685494298366e-01 
2.730558663516e+01 4.690070874386e-01 
2.749441369170e+01 4.650296525589e-01 
2.749441369170e+01 4.654728807207e-01 
2.768135247625e+01 4.616530872807e-01 
2.768135247625e+01 4.620827791118e-01 
2.786642187247e+01 4.584106934852e-01 
2.786642187247e+01 4.588276654704e-01 
2.804964057500e+01 4.552942095756e-01 
2.804964057500e+01 4.556992098768e-01 
2.823102709034e+01 4.522960686814e-01 
2.823102709034e+01 4.526897843652e-01 
2.841059974053e+01 4.494093252698e-01 
2.841059974053e+01 4.497923886194e-01 
2.858837666689e+01 4.466275910039e-01 
2.858837666689e+01 4.470005850499e-01 
2.876437582464e+01 4.439449786388e-01 
2.876437582464e+01 4.443084420220e-01 
2.893861498963e+01 4.413560524986e-01 
2.893861498963e+01 4.417104837560e-01 
2.911111176485e+01 4.388557848017e-01 
2.911111176485e+01 4.392016461561e-01 
2.928188357197e+01 4.364395172399e-01 
2.928188357197e+01 4.367772379596e-01 
2.945094766098e+01 4.341029266546e-01 
2.945094766098e+01 4.344329060396e-01 
2.961832111052e+01 4.318419946455e-01 
2.961832111052e+01 4.321646046882e-01 
2.978402082546e+01 4.296529805183e-01 
2.978402082546e+01 4.299685682802e-01 
2.994806354328e+01 4.275323970028e-01 
2.994806354328e+01 4.278412867420e-01 
3.011046583142e+01 4.254769886235e-01 
3.011046583142e+01 4.257794837038e-01 
3.027124409672e+01 4.234837121427e-01 
3.027124409672e+01 4.237800967498e-01 
3.043041457957e+01 4.215497191585e-01 
3.043041457957e+01 4.218402598466e-01 
3.058799335738e+01 4.196723403136e-01 
3.058799335738e+01 4.199572874010e-01 
3.074399634768e+01 4.178490710436e-01 
3.074399634768e+01 4.181286598758e-01 
3.089843930846e+01 4.160775587183e-01 
3.089843930846e+01 4.163520108117e-01 
3.105133784124e+01 4.143555909599e-01 
3.105133784124e+01 4.146251150406e-01 
3.120270738832e+01 4.126810851030e-01 
3.120270738832e+01 4.129458780508e-01 
3.135256323889e+01 4.110520785159e-01 
3.135256323889e+01 4.113123262246e-01 
3.150092052907e+01 4.094667198504e-01 
3.150092052907e+01 4.097225980120e-01 
3.164779424804e+01 4.079232609986e-01 
3.164779424804e+01 4.081749358202e-01 
3.179319923193e+01 4.064200498694e-01 
3.179319923193e+01 4.066676787288e-01 
3.193715016398e+01 4.049555237171e-01 
3.193715016398e+01 4.051992557640e-01 
3.207966158651e+01 4.035282029122e-01 
3.207966158651e+01 4.037681796194e-01 
3.222074789468e+01 4.021366854044e-01 
3.222074789468e+01 4.023730410743e-01 
3.236042333961e+01 4.007796415468e-01 
3.236042333961e+01 4.010125037778e-01 
3.249870203111e+01 3.994558093384e-01 
3.249870203111e+01 3.996852994539e-01 
3.263559793463e+01 3.981639900955e-01 
3.263559793463e+01 3.983902235403e-01 
3.277112488002e+01 3.969030443524e-01 
3.277112488002e+01 3.971261310583e-01 
3.290529655535e+01 3.956718882133e-01 
3.290529655535e+01 3.958919329369e-01 
3.303812651273e+01 3.944694898709e-01 
3.303812651273e+01 3.946865925069e-01 
3.316962817094e+01 3.932948664148e-01 
3.316962817094e+01 3.935091222858e-01 
3.329981481222e+01 3.921470809258e-01 
3.329981481222e+01 3.923585810513e-01 
3.342869958796e+01 3.910252397048e-01 
3.342869958796e+01 3.912340710509e-01 
3.355629551528e+01 3.899284897771e-01 
3.355629551528e+01 3.901347354887e-01 
3.368261548278e+01 3.888560164977e-01 
3.368261548278e+01 3.890597561144e-01 
3.380767225007e+01 3.878070413752e-01 
3.380767225007e+01 3.880083510325e-01 
3.393147845034e+01 3.867808200198e-01 
3.393147845034e+01 3.869797726365e-01 
3.405404658994e+01 3.857766402578e-01 
3.405404658994e+01 3.859733057111e-01 
3.417538904792e+01 3.847938203711e-01 
3.417538904792e+01 3.849882656598e-01 
3.429551808150e+01 3.838317074078e-01 
3.429551808150e+01 3.840239968050e-01 
3.441444582560e+01 3.828896756504e-01 
3.441444582560e+01 3.830798708463e-01 
3.453218429222e+01 3.819671251841e-01 
3.453218429222e+01 3.821552854198e-01 
3.464874537296e+01 3.810634805334e-01 
3.464874537296e+01 3.812496627263e-01 
3.476414084434e+01 3.801781893634e-01 
3.476414084434e+01 3.803624482243e-01 
3.487838236120e+01 3.793107213524e-01 
3.487838236120e+01 3.794931094961e-01 
3.499148146213e+01 3.784605670448e-01 
3.499148146213e+01 3.786411350934e-01 
3.510344957168e+01 3.776272367974e-01 
3.510344957168e+01 3.778060334778e-01 
3.521429799980e+01 3.768102598110e-01 
3.521429799980e+01 3.769873320464e-01 
3.532403794400e+01 3.760091831991e-01 
3.532403794400e+01 3.761845761947e-01 
3.543268048871e+01 3.752235711322e-01 
3.543268048871e+01 3.753973284569e-01 
3.554023660747e+01 3.744530040127e-01 
3.554023660747e+01 3.746251676753e-01 
3.564671716519e+01 3.736970776963e-01 
3.564671716519e+01 3.738676882174e-01 
3.575213291727e+01 3.729554027808e-01 
3.575213291727e+01 3.731244992609e-01 
3.585649451188e+01 3.722276039124e-01 
3.585649451188e+01 3.723952240965e-01 
3.595981249202e+01 3.715133191338e-01 
3.595981249202e+01 3.716794994715e-01 
3.606209729169e+01 3.708121993073e-01 
3.606209729169e+01 3.709769750104e-01 
3.616335924104e+01 3.701239075098e-01 
3.616335924104e+01 3.702873126069e-01 
3.626360857141e+01 3.694481184616e-01 
3.626360857141e+01 3.696101858489e-01 
3.636285540837e+01 3.687845180650e-01 
3.636285540837e+01 3.689452795554e-01 
3.646110977685e+01 3.681328028886e-01 
3.646110977685e+01 3.682922892573e-01 
3.655838160307e+01 3.674926796993e-01 
3.655838160307e+01 3.676509207278e-01 
3.665468071061e+01 3.668638650569e-01 
3.665468071061e+01 3.670208895744e-01 
3.675001682841e+01 3.662460848533e-01 
3.675001682841e+01 3.664019207762e-01 
3.684439958667e+01 3.656390739522e-01 
3.684439958667e+01 3.657937483211e-01 
3.693783851586e+01 3.650425758278e-01 
3.693783851586e+01 3.651961148431e-01 
3.703034305466e+01 3.644563421650e-01 
3.703034305466e+01 3.646087712208e-01 
3.712192254881e+01 3.638801325369e-01 
3.712192254881e+01 3.640314762528e-01 
3.721258624699e+01 3.633137141164e-01 
3.721258624699e+01 3.634639963681e-01 
3.730234330879e+01 3.627568613271e-01 
3.730234330879e+01 3.629061052757e-01 
3.739120280040e+01 3.622093555874e-01 
3.739120280040e+01 3.623575837063e-01 
3.747917369664e+01 3.616709850268e-01 
3.747917369664e+01 3.618182191290e-01 
3.756626488560e+01 3.611415442017e-01 
3.756626488560e+01 3.612878054641e-01 
3.765248516150e+01 3.606208338934e-01 
3.765248516150e+01 3.607661428813e-01 
3.773784323258e+01 3.601086608284e-01 
3.773784323258e+01 3.602530375180e-01 
3.782234772267e+01 3.596048374464e-01 
3.782234772267e+01 3.597483012466e-01 
3.790600717004e+01 3.591091816969e-01 
3.790600717004e+01 3.592517514704e-01 
3.798883002307e+01 3.586215168631e-01 
3.798883002307e+01 3.587632109458e-01 
3.807082464508e+01 3.581416713405e-01 
3.807082464508e+01 3.582825075611e-01 
3.815199932188e+01 3.576694784099e-01 
3.815199932188e+01 3.578094741073e-01 
3.823236225151e+01 3.572047761224e-01 
3.823236225151e+01 3.573439481635e-01 
3.831192155190e+01 3.567474070872e-01 
3.831192155190e+01 3.568857718837e-01 
3.839068525948e+01 3.562972183210e-01 
3.839068525948e+01 3.564347918447e-01 
3.846866133085e+01 3.558540610852e-01 
3.846866133085e+01 3.559908588837e-01 
3.854585764132e+01 3.554177907488e-01 
3.854585764132e+01 3.555538279597e-01 
3.862228198662e+01 3.549882666388e-01 