 TITLE = "Profiles along polylines"
 VARIABLES = "DIST" "SATURATION1" 
 ZONE T="TIME=0.000000000000e+00"
0.000000000000e+00 1.000000000000e+00 
4.618829203569e-01 1.000000000000e+00 
9.191470120950e-01 1.000000000000e+00 
1.371838465678e+00 1.000000000000e+00 
1.820003006032e+00 1.000000000000e+00 
2.263685898897e+00 1.000000000000e+00 
2.702931962895e+00 1.000000000000e+00 
3.137785566562e+00 1.000000000000e+00 
3.568290634397e+00 1.000000000000e+00 
3.994490652667e+00 1.000000000000e+00 
4.416428669260e+00 1.000000000000e+00 
4.834147305392e+00 1.000000000000e+00 
5.247688755142e+00 1.000000000000e+00 
5.657094791088e+00 1.000000000000e+00 
6.062406766640e+00 1.000000000000e+00 
6.463665621544e+00 1.000000000000e+00 
6.860911890009e+00 1.000000000000e+00 
7.254185696981e+00 1.000000000000e+00 
7.643526763267e+00 1.000000000000e+00 
8.028974416599e+00 1.000000000000e+00 
8.410567593464e+00 1.000000000000e+00 
8.788344838065e+00 1.000000000000e+00 
9.162344310086e+00 1.000000000000e+00 
9.532603789411e+00 1.000000000000e+00 
9.899160674727e+00 1.000000000000e+00 
1.026205199119e+01 1.000000000000e+00 
1.062131439479e+01 1.000000000000e+00 
1.097698417388e+01 1.000000000000e+00 
1.132909725638e+01 1.000000000000e+00 
1.167768920815e+01 1.000000000000e+00 
1.202279524015e+01 1.000000000000e+00 
1.236445021252e+01 1.000000000000e+00 
1.270268863568e+01 1.000000000000e+00 
1.303754467427e+01 1.000000000000e+00 
1.336905215110e+01 1.000000000000e+00 
1.369724455397e+01 1.000000000000e+00 
1.402215503337e+01 1.000000000000e+00 
1.434381640631e+01 1.000000000000e+00 
1.466226116587e+01 1.000000000000e+00 
1.497752147876e+01 1.000000000000e+00 
1.528962918890e+01 1.000000000000e+00 
1.559861582076e+01 1.000000000000e+00 
1.590451258585e+01 1.000000000000e+00 
1.620735038291e+01 1.000000000000e+00 
1.650715980126e+01 1.000000000000e+00 
1.680397112688e+01 1.000000000000e+00 
1.709781433961e+01 1.000000000000e+00 
1.738871911921e+01 1.000000000000e+00 
1.767671485134e+01 1.000000000000e+00 
1.796183062747e+01 1.000000000000e+00 
1.824409524482e+01 1.000000000000e+00 
1.852353721519e+01 1.000000000000e+00 
1.880018476764e+01 1.000000000000e+00 
1.907406584525e+01 1.000000000000e+00 
1.934520811079e+01 1.000000000000e+00 
1.961363895232e+01 1.000000000000e+00 
1.987938548567e+01 1.000000000000e+00 
2.014247455395e+01 1.000000000000e+00 
2.040293272997e+01 1.000000000000e+00 
2.066078632467e+01 1.000000000000e+00 
2.091606138624e+01 1.000000000000e+00 
2.116878369686e+01 1.000000000000e+00 
2.141897878317e+01 1.000000000000e+00 
2.166667191915e+01 1.000000000000e+00 
2.191188812483e+01 1.000000000000e+00 
2.215465216843e+01 1.000000000000e+00 
2.239498857147e+01 1.000000000000e+00 
2.263292161056e+01 1.000000000000e+00 
2.286847531945e+01 1.000000000000e+00 
2.310167349079e+01 1.000000000000e+00 
2.333253967804e+01 1.000000000000e+00 
2.356109720316e+01 1.000000000000e+00 
2.378736915530e+01 1.000000000000e+00 
2.401137838949e+01 1.000000000000e+00 
2.423314753134e+01 1.000000000000e+00 
2.445269898152e+01 1.000000000000e+00 
2.467005491734e+01 1.000000000000e+00 
2.488523729422e+01 1.000000000000e+00 
2.509826784711e+01 1.000000000000e+00 
2.530916809488e+01 1.000000000000e+00 
2.551795933881e+01 1.000000000000e+00 
2.572466266963e+01 1.000000000000e+00 
2.592929896600e+01 1.000000000000e+00 
2.613188889870e+01 1.000000000000e+00 
2.633245293470e+01 1.000000000000e+00 
2.653101132936e+01 1.000000000000e+00 
2.672758413963e+01 1.000000000000e+00 
2.692219122191e+01 1.000000000000e+00 
2.711485223325e+01 1.000000000000e+00 
2.730558663516e+01 1.000000000000e+00 
2.749441369170e+01 1.000000000000e+00 
2.768135247625e+01 1.000000000000e+00 
2.786642187247e+01 1.000000000000e+00 
2.804964057500e+01 1.000000000000e+00 
2.823102709034e+01 1.000000000000e+00 
2.841059974053e+01 1.000000000000e+00 
2.858837666689e+01 1.000000000000e+00 
2.876437582464e+01 1.000000000000e+00 
2.893861498963e+01 1.000000000000e+00 
2.911111176485e+01 1.000000000000e+00 
2.928188357197e+01 1.000000000000e+00 
2.945094766098e+01 1.000000000000e+00 
2.961832111052e+01 1.000000000000e+00 
2.978402082546e+01 1.000000000000e+00 
2.994806354328e+01 1.000000000000e+00 
3.011046583142e+01 1.000000000000e+00 
3.027124409672e+01 1.000000000000e+00 
3.043041457957e+01 1.000000000000e+00 
3.058799335738e+01 1.000000000000e+00 
3.074399634768e+01 1.000000000000e+00 
3.089843930846e+01 1.000000000000e+00 
3.105133784124e+01 1.000000000000e+00 
3.120270738832e+01 1.000000000000e+00 
3.135256323889e+01 1.000000000000e+00 
3.150092052907e+01 1.000000000000e+00 
3.164779424804e+01 1.000000000000e+00 
3.179319923193e+01 1.000000000000e+00 
3.193715016398e+01 1.000000000000e+00 
3.207966158651e+01 1.000000000000e+00 
3.222074789468e+01 1.000000000000e+00 
3.236042333961e+01 1.000000000000e+00 
3.249870203111e+01 1.000000000000e+00 
3.263559793463e+01 1.000000000000e+00 
3.277112488002e+01 1.000000000000e+00 
3.290529655535e+01 1.000000000000e+00 
3.303812651273e+01 1.000000000000e+00 
3.316962817094e+01 1.000000000000e+00 
3.329981481222e+01 1.000000000000e+00 
3.342869958796e+01 1.000000000000e+00 
3.355629551528e+01 1.000000000000e+00 
3.368261548278e+01 1.000000000000e+00 
3.380767225007e+01 1.000000000000e+00 
3.393147845034e+01 1.000000000000e+00 
3.405404658994e+01 1.000000000000e+00 
3.417538904792e+01 1.000000000000e+00 
3.429551808150e+01 1.000000000000e+00 
3.441444582560e+01 1.000000000000e+00 
3.453218429222e+01 1.000000000000e+00 
3.464874537296e+01 1.000000000000e+00 
3.476414084434e+01 1.000000000000e+00 
3.487838236120e+01 1.000000000000e+00 
3.499148146213e+01 1.000000000000e+00 
3.510344957168e+01 1.000000000000e+00 
3.521429799980e+01 1.000000000000e+00 
3.532403794400e+01 1.000000000000e+00 
3.543268048871e+01 1.000000000000e+00 
3.554023660747e+01 1.000000000000e+00 
3.564671716519e+01 1.000000000000e+00 
3.575213291727e+01 1.000000000000e+00 
3.585649451188e+01 1.000000000000e+00 
3.595981249202e+01 1.000000000000e+00 
3.606209729169e+01 1.000000000000e+00 
3.616335924104e+01 1.000000000000e+00 
3.626360857141e+01 1.000000000000e+00 
3.636285540837e+01 1.000000000000e+00 
3.646110977685e+01 1.000000000000e+00 
3.655838160307e+01 1.000000000000e+00 
3.665468071061e+01 1.000000000000e+00 
3.675001682841e+01 1.000000000000e+00 
3.684439958667e+01 1.000000000000e+00 
3.693783851586e+01 1.000000000000e+00 
3.703034305466e+01 1.000000000000e+00 
3.712192254881e+01 1.000000000000e+00 
3.721258624699e+01 1.000000000000e+00 
3.730234330879e+01 1.000000000000e+00 
3.739120280040e+01 1.000000000000e+00 
3.747917369664e+01 1.000000000000e+00 
3.756626488560e+01 1.000000000000e+00 
3.765248516150e+01 1.000000000000e+00 
3.773784323258e+01 1.000000000000e+00 
3.782234772267e+01 1.000000000000e+00 
3.790600717004e+01 1.000000000000e+00 
3.798883002307e+01 1.000000000000e+00 
3.807082464508e+01 1.000000000000e+00 
3.815199932188e+01 1.000000000000e+00 
3.823236225151e+01 1.000000000000e+00 
3.831192155190e+01 1.000000000000e+00 
3.839068525948e+01 1.000000000000e+00 
3.846866133085e+01 1.000000000000e+00 
3.854585764132e+01 1.000000000000e+00 
3.862228198662e+01 1.000000000000e+00 
3.869794209036e+01 1.000000000000e+00 
3.877284559360e+01 1.000000000000e+00 
3.884700006248e+01 1.000000000000e+00 
3.892041298666e+01 1.000000000000e+00 
3.899309178093e+01 1.000000000000e+00 
3.906504378659e+01 1.000000000000e+00 
3.913627627307e+01 1.000000000000e+00 
3.920679643622e+01 1.000000000000e+00 
3.927661139697e+01 1.000000000000e+00 
3.934572820861e+01 1.000000000000e+00 
3.941415385231e+01 1.000000000000e+00 
3.948189523848e+01 1.000000000000e+00 
3.954895921123e+01 1.000000000000e+00 
3.961535254363e+01 1.000000000000e+00 
3.968108194226e+01 1.000000000000e+00 
3.974615404836e+01 1.000000000000e+00 
3.981057543334e+01 1.000000000000e+00 
3.987435260302e+01 1.000000000000e+00 
3.993749199903e+01 1.000000000000e+00 
4.000000000000e+01 1.000000000000e+00 
 TITLE = "Profiles along polylines"
 VARIABLES = "DIST" "SATURATION1" 
 ZONE T="TIME=1.797693134862e+308"
0.000000000000e+00 1.000000000000e+00 
4.618829203569e-01 1.000000000000e+00 
9.191470120950e-01 1.000000000000e+00 
1.371838465678e+00 1.000000000000e+00 
1.820003006032e+00 1.000000000000e+00 
2.263685898897e+00 1.000000000000e+00 
2.702931962895e+00 1.000000000000e+00 
3.137785566562e+00 1.000000000000e+00 
3.568290634397e+00 1.000000000000e+00 
3.994490652667e+00 1.000000000000e+00 
4.416428669260e+00 1.000000000000e+00 
4.834147305392e+00 1.000000000000e+00 
5.247688755142e+00 1.000000000000e+00 
5.657094791088e+00 1.000000000000e+00 
6.062406766640e+00 1.000000000000e+00 
6.463665621544e+00 1.000000000000e+00 
6.860911890009e+00 1.000000000000e+00 
7.254185696981e+00 1.000000000000e+00 
7.643526763267e+00 1.000000000000e+00 
8.028974416599e+00 1.000000000000e+00 
8.410567593464e+00 1.000000000000e+00 
8.788344838065e+00 1.000000000000e+00 
9.162344310086e+00 1.000000000000e+00 
9.532603789411e+00 1.000000000000e+00 
9.899160674727e+00 1.000000000000e+00 
1.026205199119e+01 1.000000000000e+00 
1.062131439479e+01 1.000000000000e+00 
1.097698417388e+01 1.000000000000e+00 
1.132909725638e+01 1.000000000000e+00 
1.167768920815e+01 1.000000000000e+00 
1.202279524015e+01 1.000000000000e+00 
1.236445021252e+01 1.000000000000e+00 
1.270268863568e+01 1.000000000000e+00 
1.303754467427e+01 1.000000000000e+00 
1.336905215110e+01 1.000000000000e+00 
1.369724455397e+01 1.000000000000e+00 
1.402215503337e+01 1.000000000000e+00 
1.434381640631e+01 1.000000000000e+00 
1.466226116587e+01 1.000000000000e+00 
1.497752147876e+01 1.000000000000e+00 
1.528962918890e+01 1.000000000000e+00 
1.559861582076e+01 1.000000000000e+00 
1.590451258585e+01 1.000000000000e+00 
1.620735038291e+01 1.000000000000e+00 
1.650715980126e+01 1.000000000000e+00 
1.680397112688e+01 1.000000000000e+00 
1.709781433961e+01 1.000000000000e+00 
1.738871911921e+01 1.000000000000e+00 
1.767671485134e+01 1.000000000000e+00 
1.796183062747e+01 1.000000000000e+00 
1.824409524482e+01 1.000000000000e+00 
1.852353721519e+01 1.000000000000e+00 
1.880018476764e+01 1.000000000000e+00 
1.907406584525e+01 1.000000000000e+00 
1.934520811079e+01 1.000000000000e+00 
1.961363895232e+01 1.000000000000e+00 
1.987938548567e+01 1.000000000000e+00 
2.014247455395e+01 1.000000000000e+00 
2.040293272997e+01 1.000000000000e+00 
2.066078632467e+01 1.000000000000e+00 
2.091606138624e+01 1.000000000000e+00 
2.116878369686e+01 1.000000000000e+00 
2.141897878317e+01 9.741939449694e-01 
2.166667191915e+01 9.196501206767e-01 
2.191188812483e+01 8.693925490278e-01 
2.215465216843e+01 8.258329036568e-01 
2.239498857147e+01 7.885877333931e-01 
2.263292161056e+01 7.566551312304e-01 
2.286847531945e+01 7.290610803143e-01 
2.310167349079e+01 7.049963315577e-01 
2.333253967804e+01 6.838183185764e-01 
2.356109720316e+01 6.650225452868e-01 
2.378736915530e+01 6.482122309432e-01 
2.401137838949e+01 6.330730905047e-01 
2.423314753134e+01 6.193538754875e-01 
2.445269898152e+01 6.068517359831e-01 
2.467005491734e+01 5.954012783357e-01 
2.488523729422e+01 5.848663662831e-01 
2.509826784711e+01 5.751339382540e-01 
2.530916809488e+01 5.661093059848e-01 
2.551795933881e+01 5.577125471286e-01 
2.572466266963e+01 5.498757108369e-01 
2.592929896600e+01 5.425406336490e-01 
2.613188889870e+01 5.356572166339e-01 
2.633245293470e+01 5.291820548812e-01 
2.653101132936e+01 5.230773387236e-01 
2.672758413963e+01 5.173099650829e-01 
2.692219122191e+01 5.118508144522e-01 
2.711485223325e+01 5.066741581156e-01 
2.730558663516e+01 5.017571689883e-01 
2.749441369170e+01 4.970795156804e-01 
2.768135247625e+01 4.926230233353e-01 
2.786642187247e+01 4.883713890244e-01 
2.804964057500e+01 4.843099415607e-01 
2.823102709034e+01 4.804254378027e-01 
2.841059974053e+01 4.767058890411e-01 
2.858837666689e+01 4.731404124291e-01 
2.876437582464e+01 4.697191034806e-01 
2.893861498963e+01 4.664329258342e-01 
2.911111176485e+01 4.632736157948e-01 
2.928188357197e+01 4.602335996263e-01 
2.945094766098e+01 4.573059211065e-01 
2.961832111052e+01 4.544841782950e-01 
2.978402082546e+01 4.517624680768e-01 
2.994806354328e+01 4.491353371991e-01 
3.011046583142e+01 4.465977391835e-01 
3.027124409672e+01 4.441449959986e-01 
3.043041457957e+01 4.417727642670e-01 
3.058799335738e+01 4.394770050577e-01 
3.074399634768e+01 4.372539569482e-01 
3.089843930846e+01 4.351001119778e-01 
3.105133784124e+01 4.330121940646e-01 
3.120270738832e+01 4.309871397012e-01 
3.135256323889e+01 4.290220804692e-01 
3.150092052907e+01 4.271143273517e-01 
3.164779424804e+01 4.252613564872e-01 
3.179319923193e+01 4.234607964268e-01 
3.193715016398e+01 4.217104165054e-01 
3.207966158651e+01 4.200081161407e-01 
3.222074789468e+01 4.183519153121e-01 
3.236042333961e+01 4.167399457784e-01 
3.249870203111e+01 4.151704430671e-01 
3.263559793463e+01 4.136417392184e-01 
3.277112488002e+01 4.121522560141e-01 
3.290529655535e+01 4.107004989343e-01 
3.303812651273e+01 4.092850514814e-01 
3.316962817094e+01 4.079045699993e-01 
3.329981481222e+01 4.065577789651e-01 
3.342869958796e+01 4.052434665616e-01 
3.355629551528e+01 4.039604806834e-01 
3.368261548278e+01 4.027077251591e-01 
3.380767225007e+01 4.014841563188e-01 
3.393147845034e+01 4.002887797866e-01 
3.405404658994e+01 3.991206475389e-01 
3.417538904792e+01 3.979788551742e-01 
3.429551808150e+01 3.968625393244e-01 
3.441444582560e+01 3.957708753028e-01 
3.453218429222e+01 3.947030749172e-01 
3.464874537296e+01 3.936583844049e-01 
3.476414084434e+01 3.926360824846e-01 
3.487838236120e+01 3.916354786415e-01 
3.499148146213e+01 3.906559114230e-01 
3.510344957168e+01 3.896967468738e-01 
3.521429799980e+01 3.887573770946e-01 
3.532403794400e+01 3.878372188713e-01 
3.543268048871e+01 3.869357124135e-01 
3.554023660747e+01 3.860523201483e-01 
3.564671716519e+01 3.851865255889e-01 
3.575213291727e+01 3.843378322966e-01 
3.585649451188e+01 3.835057628809e-01 
3.595981249202e+01 3.826898580612e-01 
3.606209729169e+01 3.818896758290e-01 
3.616335924104e+01 3.811047905904e-01 
3.626360857141e+01 3.803347923594e-01 
3.636285540837e+01 3.795792860873e-01 
3.646110977685e+01 3.788378909399e-01 
3.655838160307e+01 3.781102396388e-01 
3.665468071061e+01 3.773959778821e-01 
3.675001682841e+01 3.766947637111e-01 
3.684439958667e+01 3.760062669971e-01 
3.693783851586e+01 3.753301689348e-01 
3.703034305466e+01 3.746661614987e-01 
3.712192254881e+01 3.740139469924e-01 
3.721258624699e+01 3.733732376420e-01 
3.730234330879e+01 3.727437551271e-01 
3.739120280040e+01 3.721252302194e-01 
3.747917369664e+01 3.715174023982e-01 
3.756626488560e+01 3.709200194650e-01 
3.765248516150e+01 3.703328372586e-01 
3.773784323258e+01 3.697556192837e-01 
3.782234772267e+01 3.691881363975e-01 
3.790600717004e+01 3.686301665322e-01 
3.798883002307e+01 3.680814944499e-01 
3.807082464508e+01 3.675419114505e-01 
3.815199932188e+01 3.670112150746e-01 
3.823236225151e+01 3.664892089363e-01 
3.831192155190e+01 3.659757024477e-01 
3.839068525948e+01 3.654705106150e-01 
3.846866133085e+01 3.649734538234e-01 
3.854585764132e+01 3.644843576521e-01 
3.862228198662e+01 3.640030526774e-01 
3.869794209036e+01 3.635293742490e-01 
3.877284559360e+01 3.630631623866e-01 
3.884700006248e+01 3.626042615700e-01 
3.892041298666e+01 3.621525205948e-01 
3.899309178093e+01 3.617077924146e-01 
3.906504378659e+01 3.612699339914e-01 
3.913627627307e+01 3.608388061511e-01 
3.920679643622e+01 3.604142734647e-01 
3.927661139697e+01 3.599962041323e-01 
3.934572820861e+01 3.595844698214e-01 
3.941415385231e+01 3.591789455802e-01 
3.948189523848e+01 3.587795097205e-01 
3.954895921123e+01 3.583860436880e-01 
3.961535254363e+01 3.579984319899e-01 
3.968108194226e+01 3.576165620725e-01 
3.974615404836e+01 3.572403242234e-01 
3.981057543334e+01 3.568696115088e-01 
3.987435260302e+01 3.565043196647e-01 
3.993749199903e+01 3.561443470077e-01 
4.000000000000e+01 3.557895933503e-01 
