 TITLE = "Profiles along polylines"
 VARIABLES = "DIST" "SATURATION1" 
 ZONE T="TIME=0.000000000000e+00"
0.000000000000e+00 1.000000000000e+00 
0.000000000000e+00 1.000000000000e+00 
4.618829203569e-01 1.000000000000e+00 
4.618829203569e-01 1.000000000000e+00 
9.191470120950e-01 1.000000000000e+00 
9.191470120950e-01 1.000000000000e+00 
1.371838465678e+00 1.000000000000e+00 
1.371838465678e+00 1.000000000000e+00 
1.820003006032e+00 1.000000000000e+00 
1.820003006032e+00 1.000000000000e+00 
2.263685898897e+00 1.000000000000e+00 
2.263685898897e+00 1.000000000000e+00 
2.702931962895e+00 1.000000000000e+00 
2.702931962895e+00 1.000000000000e+00 
3.137785566562e+00 1.000000000000e+00 
3.137785566562e+00 1.000000000000e+00 
3.568290634397e+00 1.000000000000e+00 
3.568290634397e+00 1.000000000000e+00 
3.994490652667e+00 1.000000000000e+00 
3.994490652667e+00 1.000000000000e+00 
4.416428669260e+00 1.000000000000e+00 
4.416428669260e+00 1.000000000000e+00 
4.834147305392e+00 1.000000000000e+00 
4.834147305392e+00 1.000000000000e+00 
5.247688755142e+00 1.000000000000e+00 
5.247688755142e+00 1.000000000000e+00 
5.657094791088e+00 1.000000000000e+00 
5.657094791088e+00 1.000000000000e+00 
6.062406766640e+00 1.000000000000e+00 
6.062406766640e+00 1.000000000000e+00 
6.463665621544e+00 1.000000000000e+00 
6.463665621544e+00 1.000000000000e+00 
6.860911890009e+00 1.000000000000e+00 
6.860911890009e+00 1.000000000000e+00 
7.254185696981e+00 1.000000000000e+00 
7.254185696981e+00 1.000000000000e+00 
7.643526763267e+00 1.000000000000e+00 
7.643526763267e+00 1.000000000000e+00 
8.028974416599e+00 1.000000000000e+00 
8.028974416599e+00 1.000000000000e+00 
8.410567593464e+00 1.000000000000e+00 
8.410567593464e+00 1.000000000000e+00 
8.788344838065e+00 1.000000000000e+00 
8.788344838065e+00 1.000000000000e+00 
9.162344310086e+00 1.000000000000e+00 
9.162344310086e+00 1.000000000000e+00 
9.532603789411e+00 1.000000000000e+00 
9.532603789411e+00 1.000000000000e+00 
9.899160674727e+00 1.000000000000e+00 
9.899160674727e+00 1.000000000000e+00 
1.026205199119e+01 1.000000000000e+00 
1.026205199119e+01 1.000000000000e+00 
1.062131439479e+01 1.000000000000e+00 
1.062131439479e+01 1.000000000000e+00 
1.097698417388e+01 1.000000000000e+00 
1.097698417388e+01 1.000000000000e+00 
1.132909725638e+01 1.000000000000e+00 
1.132909725638e+01 1.000000000000e+00 
1.167768920815e+01 1.000000000000e+00 
1.167768920815e+01 1.000000000000e+00 
1.202279524015e+01 1.000000000000e+00 
1.202279524015e+01 1.000000000000e+00 
1.236445021252e+01 1.000000000000e+00 
1.236445021252e+01 1.000000000000e+00 
1.270268863568e+01 1.000000000000e+00 
1.270268863568e+01 1.000000000000e+00 
1.303754467427e+01 1.000000000000e+00 
1.303754467427e+01 1.000000000000e+00 
1.336905215110e+01 1.000000000000e+00 
1.336905215110e+01 1.000000000000e+00 
1.369724455397e+01 1.000000000000e+00 
1.369724455397e+01 1.000000000000e+00 
1.402215503337e+01 1.000000000000e+00 
1.402215503337e+01 1.000000000000e+00 
1.434381640631e+01 1.000000000000e+00 
1.434381640631e+01 1.000000000000e+00 
1.466226116587e+01 1.000000000000e+00 
1.466226116587e+01 1.000000000000e+00 
1.497752147876e+01 1.000000000000e+00 
1.497752147876e+01 1.000000000000e+00 
1.528962918890e+01 1.000000000000e+00 
1.528962918890e+01 1.000000000000e+00 
1.559861582076e+01 1.000000000000e+00 
1.559861582076e+01 1.000000000000e+00 
1.590451258585e+01 1.000000000000e+00 
1.590451258585e+01 1.000000000000e+00 
1.620735038291e+01 1.000000000000e+00 
1.620735038291e+01 1.000000000000e+00 
1.650715980126e+01 1.000000000000e+00 
1.650715980126e+01 1.000000000000e+00 
1.680397112688e+01 1.000000000000e+00 
1.680397112688e+01 1.000000000000e+00 
1.709781433961e+01 1.000000000000e+00 
1.709781433961e+01 1.000000000000e+00 
1.738871911921e+01 1.000000000000e+00 
1.738871911921e+01 1.000000000000e+00 
1.767671485134e+01 1.000000000000e+00 
1.767671485134e+01 1.000000000000e+00 
1.796183062747e+01 1.000000000000e+00 
1.796183062747e+01 1.000000000000e+00 
1.824409524482e+01 1.000000000000e+00 
1.824409524482e+01 1.000000000000e+00 
1.852353721519e+01 1.000000000000e+00 
1.852353721519e+01 1.000000000000e+00 
1.880018476764e+01 1.000000000000e+00 
1.880018476764e+01 1.000000000000e+00 
1.907406584525e+01 1.000000000000e+00 
1.907406584525e+01 1.000000000000e+00 
1.934520811079e+01 1.000000000000e+00 
1.934520811079e+01 1.000000000000e+00 
1.961363895232e+01 1.000000000000e+00 
1.961363895232e+01 1.000000000000e+00 
1.987938548567e+01 1.000000000000e+00 
1.987938548567e+01 1.000000000000e+00 
2.014247455395e+01 1.000000000000e+00 
2.014247455395e+01 1.000000000000e+00 
2.040293272997e+01 1.000000000000e+00 
2.040293272997e+01 1.000000000000e+00 
2.066078632467e+01 1.000000000000e+00 
2.066078632467e+01 1.000000000000e+00 
2.091606138624e+01 1.000000000000e+00 
2.091606138624e+01 1.000000000000e+00 
2.116878369686e+01 1.000000000000e+00 
2.116878369686e+01 1.000000000000e+00 
2.141897878317e+01 1.000000000000e+00 
2.141897878317e+01 1.000000000000e+00 
2.166667191915e+01 1.000000000000e+00 
2.166667191915e+01 1.000000000000e+00 
2.191188812483e+01 1.000000000000e+00 
2.191188812483e+01 1.000000000000e+00 
2.215465216843e+01 1.000000000000e+00 
2.215465216843e+01 1.000000000000e+00 
2.239498857147e+01 1.000000000000e+00 
2.239498857147e+01 1.000000000000e+00 
2.263292161056e+01 1.000000000000e+00 
2.263292161056e+01 1.000000000000e+00 
2.286847531945e+01 1.000000000000e+00 
2.286847531945e+01 1.000000000000e+00 
2.310167349079e+01 1.000000000000e+00 
2.310167349079e+01 1.000000000000e+00 
2.333253967804e+01 1.000000000000e+00 
2.333253967804e+01 1.000000000000e+00 
2.356109720316e+01 1.000000000000e+00 
2.356109720316e+01 1.000000000000e+00 
2.378736915530e+01 1.000000000000e+00 
2.378736915530e+01 1.000000000000e+00 
2.401137838949e+01 1.000000000000e+00 
2.401137838949e+01 1.000000000000e+00 
2.423314753134e+01 1.000000000000e+00 
2.423314753134e+01 1.000000000000e+00 
2.445269898152e+01 1.000000000000e+00 
2.445269898152e+01 1.000000000000e+00 
2.467005491734e+01 1.000000000000e+00 
2.467005491734e+01 1.000000000000e+00 
2.488523729422e+01 1.000000000000e+00 
2.488523729422e+01 1.000000000000e+00 
2.509826784711e+01 1.000000000000e+00 
2.509826784711e+01 1.000000000000e+00 
2.530916809488e+01 1.000000000000e+00 
2.530916809488e+01 1.000000000000e+00 
2.551795933881e+01 1.000000000000e+00 
2.551795933881e+01 1.000000000000e+00 
2.572466266963e+01 1.000000000000e+00 
2.572466266963e+01 1.000000000000e+00 
2.592929896600e+01 1.000000000000e+00 
2.592929896600e+01 1.000000000000e+00 
2.613188889870e+01 1.000000000000e+00 
2.613188889870e+01 1.000000000000e+00 
2.633245293470e+01 1.000000000000e+00 
2.633245293470e+01 1.000000000000e+00 
2.653101132936e+01 1.000000000000e+00 
2.653101132936e+01 1.000000000000e+00 
2.672758413963e+01 1.000000000000e+00 
2.672758413963e+01 1.000000000000e+00 
2.692219122191e+01 1.000000000000e+00 
2.692219122191e+01 1.000000000000e+00 
2.711485223325e+01 1.000000000000e+00 
2.711485223325e+01 1.000000000000e+00 
2.730558663516e+01 1.000000000000e+00 
2.730558663516e+01 1.000000000000e+00 
2.749441369170e+01 1.000000000000e+00 
2.749441369170e+01 1.000000000000e+00 
2.768135247625e+01 1.000000000000e+00 
2.768135247625e+01 1.000000000000e+00 
2.786642187247e+01 1.000000000000e+00 
2.786642187247e+01 1.000000000000e+00 
2.804964057500e+01 1.000000000000e+00 
2.804964057500e+01 1.000000000000e+00 
2.823102709034e+01 1.000000000000e+00 
2.823102709034e+01 1.000000000000e+00 
2.841059974053e+01 1.000000000000e+00 
2.841059974053e+01 1.000000000000e+00 
2.858837666689e+01 1.000000000000e+00 
2.858837666689e+01 1.000000000000e+00 
2.876437582464e+01 1.000000000000e+00 
2.876437582464e+01 1.000000000000e+00 
2.893861498963e+01 1.000000000000e+00 
2.893861498963e+01 1.000000000000e+00 
2.911111176485e+01 1.000000000000e+00 
2.911111176485e+01 1.000000000000e+00 
2.928188357197e+01 1.000000000000e+00 
2.928188357197e+01 1.000000000000e+00 
2.945094766098e+01 1.000000000000e+00 
2.945094766098e+01 1.000000000000e+00 
2.961832111052e+01 1.000000000000e+00 
2.961832111052e+01 1.000000000000e+00 
2.978402082546e+01 1.000000000000e+00 
2.978402082546e+01 1.000000000000e+00 
2.994806354328e+01 1.000000000000e+00 
2.994806354328e+01 1.000000000000e+00 
3.011046583142e+01 1.000000000000e+00 
3.011046583142e+01 1.000000000000e+00 
3.027124409672e+01 1.000000000000e+00 
3.027124409672e+01 1.000000000000e+00 
3.043041457957e+01 1.000000000000e+00 
3.043041457957e+01 1.000000000000e+00 
3.058799335738e+01 1.000000000000e+00 
3.058799335738e+01 1.000000000000e+00 
3.074399634768e+01 1.000000000000e+00 
3.074399634768e+01 1.000000000000e+00 
3.089843930846e+01 1.000000000000e+00 
3.089843930846e+01 1.000000000000e+00 
3.105133784124e+01 1.000000000000e+00 
3.105133784124e+01 1.000000000000e+00 
3.120270738832e+01 1.000000000000e+00 
3.120270738832e+01 1.000000000000e+00 
3.135256323889e+01 1.000000000000e+00 
3.135256323889e+01 1.000000000000e+00 
3.150092052907e+01 1.000000000000e+00 
3.150092052907e+01 1.000000000000e+00 
3.164779424804e+01 1.000000000000e+00 
3.164779424804e+01 1.000000000000e+00 
3.179319923193e+01 1.000000000000e+00 
3.179319923193e+01 1.000000000000e+00 
3.193715016398e+01 1.000000000000e+00 
3.193715016398e+01 1.000000000000e+00 
3.207966158651e+01 1.000000000000e+00 
3.207966158651e+01 1.000000000000e+00 
3.222074789468e+01 1.000000000000e+00 
3.222074789468e+01 1.000000000000e+00 
3.236042333961e+01 1.000000000000e+00 
3.236042333961e+01 1.000000000000e+00 
3.249870203111e+01 1.000000000000e+00 
3.249870203111e+01 1.000000000000e+00 
3.263559793463e+01 1.000000000000e+00 
3.263559793463e+01 1.000000000000e+00 
3.277112488002e+01 1.000000000000e+00 
3.277112488002e+01 1.000000000000e+00 
3.290529655535e+01 1.000000000000e+00 
3.290529655535e+01 1.000000000000e+00 
3.303812651273e+01 1.000000000000e+00 
3.303812651273e+01 1.000000000000e+00 
3.316962817094e+01 1.000000000000e+00 
3.316962817094e+01 1.000000000000e+00 
3.329981481222e+01 1.000000000000e+00 
3.329981481222e+01 1.000000000000e+00 
3.342869958796e+01 1.000000000000e+00 
3.342869958796e+01 1.000000000000e+00 
3.355629551528e+01 1.000000000000e+00 
3.355629551528e+01 1.000000000000e+00 
3.368261548278e+01 1.000000000000e+00 
3.368261548278e+01 1.000000000000e+00 
3.380767225007e+01 1.000000000000e+00 
3.380767225007e+01 1.000000000000e+00 
3.393147845034e+01 1.000000000000e+00 
3.393147845034e+01 1.000000000000e+00 
3.405404658994e+01 1.000000000000e+00 
3.405404658994e+01 1.000000000000e+00 
3.417538904792e+01 1.000000000000e+00 
3.417538904792e+01 1.000000000000e+00 
3.429551808150e+01 1.000000000000e+00 
3.429551808150e+01 1.000000000000e+00 
3.441444582560e+01 1.000000000000e+00 
3.441444582560e+01 1.000000000000e+00 
3.453218429222e+01 1.000000000000e+00 
3.453218429222e+01 1.000000000000e+00 
3.464874537296e+01 1.000000000000e+00 
3.464874537296e+01 1.000000000000e+00 
3.476414084434e+01 1.000000000000e+00 
3.476414084434e+01 1.000000000000e+00 
3.487838236120e+01 1.000000000000e+00 
3.487838236120e+01 1.000000000000e+00 
3.499148146213e+01 1.000000000000e+00 
3.499148146213e+01 1.000000000000e+00 
3.510344957168e+01 1.000000000000e+00 
3.510344957168e+01 1.000000000000e+00 
3.521429799980e+01 1.000000000000e+00 
3.521429799980e+01 1.000000000000e+00 
3.532403794400e+01 1.000000000000e+00 
3.532403794400e+01 1.000000000000e+00 
3.543268048871e+01 1.000000000000e+00 
3.543268048871e+01 1.000000000000e+00 
3.554023660747e+01 1.000000000000e+00 
3.554023660747e+01 1.000000000000e+00 
3.564671716519e+01 1.000000000000e+00 
3.564671716519e+01 1.000000000000e+00 
3.575213291727e+01 1.000000000000e+00 
3.575213291727e+01 1.000000000000e+00 
3.585649451188e+01 1.000000000000e+00 
3.585649451188e+01 1.000000000000e+00 
3.595981249202e+01 1.000000000000e+00 
3.595981249202e+01 1.000000000000e+00 
3.606209729169e+01 1.000000000000e+00 
3.606209729169e+01 1.000000000000e+00 
3.616335924104e+01 1.000000000000e+00 
3.616335924104e+01 1.000000000000e+00 
3.626360857141e+01 1.000000000000e+00 
3.626360857141e+01 1.000000000000e+00 
3.636285540837e+01 1.000000000000e+00 
3.636285540837e+01 1.000000000000e+00 
3.646110977685e+01 1.000000000000e+00 
3.646110977685e+01 1.000000000000e+00 
3.655838160307e+01 1.000000000000e+00 
3.655838160307e+01 1.000000000000e+00 
3.665468071061e+01 1.000000000000e+00 
3.665468071061e+01 1.000000000000e+00 
3.675001682841e+01 1.000000000000e+00 
3.675001682841e+01 1.000000000000e+00 
3.684439958667e+01 1.000000000000e+00 
3.684439958667e+01 1.000000000000e+00 
3.693783851586e+01 1.000000000000e+00 
3.693783851586e+01 1.000000000000e+00 
3.703034305466e+01 1.000000000000e+00 
3.703034305466e+01 1.000000000000e+00 
3.712192254881e+01 1.000000000000e+00 
3.712192254881e+01 1.000000000000e+00 
3.721258624699e+01 1.000000000000e+00 
3.721258624699e+01 1.000000000000e+00 
3.730234330879e+01 1.000000000000e+00 
3.730234330879e+01 1.000000000000e+00 
3.739120280040e+01 1.000000000000e+00 
3.739120280040e+01 1.000000000000e+00 
3.747917369664e+01 1.000000000000e+00 
3.747917369664e+01 1.000000000000e+00 
3.756626488560e+01 1.000000000000e+00 
3.756626488560e+01 1.000000000000e+00 
3.765248516150e+01 1.000000000000e+00 
3.765248516150e+01 1.000000000000e+00 
3.773784323258e+01 1.000000000000e+00 
3.773784323258e+01 1.000000000000e+00 
3.782234772267e+01 1.000000000000e+00 
3.782234772267e+01 1.000000000000e+00 
3.790600717004e+01 1.000000000000e+00 
3.790600717004e+01 1.000000000000e+00 
3.798883002307e+01 1.000000000000e+00 
3.798883002307e+01 1.000000000000e+00 
3.807082464508e+01 1.000000000000e+00 
3.807082464508e+01 1.000000000000e+00 
3.815199932188e+01 1.000000000000e+00 
3.815199932188e+01 1.000000000000e+00 
3.823236225151e+01 1.000000000000e+00 
3.823236225151e+01 1.000000000000e+00 
3.831192155190e+01 1.000000000000e+00 
3.831192155190e+01 1.000000000000e+00 
3.839068525948e+01 1.000000000000e+00 
3.839068525948e+01 1.000000000000e+00 
3.846866133085e+01 1.000000000000e+00 
3.846866133085e+01 1.000000000000e+00 
3.854585764132e+01 1.000000000000e+00 
3.854585764132e+01 1.000000000000e+00 
3.862228198662e+01 1.000000000000e+00 
3.862228198662e+01 1.000000000000e+00 
3.869794209036e+01 1.000000000000e+00 
3.869794209036e+01 1.000000000000e+00 
3.877284559360e+01 1.000000000000e+00 
3.877284559360e+01 1.000000000000e+00 
3.884700006248e+01 1.000000000000e+00 
3.884700006248e+01 1.000000000000e+00 
3.892041298666e+01 1.000000000000e+00 
3.892041298666e+01 1.000000000000e+00 
3.899309178093e+01 1.000000000000e+00 
3.899309178093e+01 1.000000000000e+00 
3.906504378659e+01 1.000000000000e+00 
3.906504378659e+01 1.000000000000e+00 
3.913627627307e+01 1.000000000000e+00 
3.913627627307e+01 1.000000000000e+00 
3.920679643622e+01 1.000000000000e+00 
3.920679643622e+01 1.000000000000e+00 
3.927661139697e+01 1.000000000000e+00 
3.927661139697e+01 1.000000000000e+00 
3.934572820861e+01 1.000000000000e+00 
3.934572820861e+01 1.000000000000e+00 
3.941415385231e+01 1.000000000000e+00 
3.941415385231e+01 1.000000000000e+00 
3.948189523848e+01 1.000000000000e+00 
3.948189523848e+01 1.000000000000e+00 
3.954895921123e+01 1.000000000000e+00 
3.954895921123e+01 1.000000000000e+00 
3.961535254363e+01 1.000000000000e+00 
3.961535254363e+01 1.000000000000e+00 
3.968108194226e+01 1.000000000000e+00 
3.968108194226e+01 1.000000000000e+00 
3.974615404836e+01 1.000000000000e+00 
3.974615404836e+01 1.000000000000e+00 
3.981057543334e+01 1.000000000000e+00 
3.981057543334e+01 1.000000000000e+00 
3.987435260302e+01 1.000000000000e+00 
3.987435260302e+01 1.000000000000e+00 
3.993749199903e+01 1.000000000000e+00 
3.993749199903e+01 1.000000000000e+00 
4.000000000000e+01 1.000000000000e+00 
4.000000000000e+01 1.000000000000e+00 
 TITLE = "Profiles along polylines"
 VARIABLES = "DIST" "SATURATION1" 
 ZONE T="TIME=1.797693134862e+308"
0.000000000000e+00 1.000000000000e+00 
0.000000000000e+00 1.000000000000e+00 
4.618829203569e-01 1.000000000000e+00 
4.618829203569e-01 1.000000000000e+00 
9.191470120950e-01 1.000000000000e+00 
9.191470120950e-01 1.000000000000e+00 
1.371838465678e+00 1.000000000000e+00 
1.371838465678e+00 1.000000000000e+00 
1.820003006032e+00 1.000000000000e+00 
1.820003006032e+00 1.000000000000e+00 
2.263685898897e+00 1.000000000000e+00 
2.263685898897e+00 1.000000000000e+00 
2.702931962895e+00 1.000000000000e+00 
2.702931962895e+00 1.000000000000e+00 
3.137785566562e+00 1.000000000000e+00 
3.137785566562e+00 1.000000000000e+00 
3.568290634397e+00 1.000000000000e+00 
3.568290634397e+00 1.000000000000e+00 
3.994490652667e+00 1.000000000000e+00 
3.994490652667e+00 1.000000000000e+00 
4.416428669260e+00 1.000000000000e+00 
4.416428669260e+00 1.000000000000e+00 
4.834147305392e+00 1.000000000000e+00 
4.834147305392e+00 1.000000000000e+00 
5.247688755142e+00 1.000000000000e+00 
5.247688755142e+00 1.000000000000e+00 
5.657094791088e+00 1.000000000000e+00 
5.657094791088e+00 1.000000000000e+00 
6.062406766640e+00 1.000000000000e+00 
6.062406766640e+00 1.000000000000e+00 
6.463665621544e+00 1.000000000000e+00 
6.463665621544e+00 1.000000000000e+00 
6.860911890009e+00 1.000000000000e+00 
6.860911890009e+00 1.000000000000e+00 
7.254185696981e+00 1.000000000000e+00 
7.254185696981e+00 1.000000000000e+00 
7.643526763267e+00 1.000000000000e+00 
7.643526763267e+00 1.000000000000e+00 
8.028974416599e+00 1.000000000000e+00 
8.028974416599e+00 1.000000000000e+00 
8.410567593464e+00 1.000000000000e+00 
8.410567593464e+00 1.000000000000e+00 
8.788344838065e+00 1.000000000000e+00 
8.788344838065e+00 1.000000000000e+00 
9.162344310086e+00 1.000000000000e+00 
9.162344310086e+00 1.000000000000e+00 
9.532603789411e+00 1.000000000000e+00 
9.532603789411e+00 1.000000000000e+00 
9.899160674727e+00 1.000000000000e+00 
9.899160674727e+00 1.000000000000e+00 
1.026205199119e+01 1.000000000000e+00 
1.026205199119e+01 1.000000000000e+00 
1.062131439479e+01 1.000000000000e+00 
1.062131439479e+01 1.000000000000e+00 
1.097698417388e+01 1.000000000000e+00 
1.097698417388e+01 1.000000000000e+00 
1.132909725638e+01 1.000000000000e+00 
1.132909725638e+01 1.000000000000e+00 
1.167768920815e+01 1.000000000000e+00 
1.167768920815e+01 1.000000000000e+00 
1.202279524015e+01 1.000000000000e+00 
1.202279524015e+01 1.000000000000e+00 
1.236445021252e+01 1.000000000000e+00 
1.236445021252e+01 1.000000000000e+00 
1.270268863568e+01 1.000000000000e+00 
1.270268863568e+01 1.000000000000e+00 
1.303754467427e+01 1.000000000000e+00 
1.303754467427e+01 1.000000000000e+00 
1.336905215110e+01 1.000000000000e+00 
1.336905215110e+01 1.000000000000e+00 
1.369724455397e+01 1.000000000000e+00 
1.369724455397e+01 1.000000000000e+00 
1.402215503337e+01 1.000000000000e+00 
1.402215503337e+01 1.000000000000e+00 
1.434381640631e+01 1.000000000000e+00 
1.434381640631e+01 1.000000000000e+00 
1.466226116587e+01 1.000000000000e+00 
1.466226116587e+01 1.000000000000e+00 
1.497752147876e+01 1.000000000000e+00 
1.497752147876e+01 1.000000000000e+00 
1.528962918890e+01 1.000000000000e+00 
1.528962918890e+01 1.000000000000e+00 
1.559861582076e+01 1.000000000000e+00 
1.559861582076e+01 1.000000000000e+00 
1.590451258585e+01 1.000000000000e+00 
1.590451258585e+01 1.000000000000e+00 
1.620735038291e+01 1.000000000000e+00 
1.620735038291e+01 1.000000000000e+00 
1.650715980126e+01 1.000000000000e+00 
1.650715980126e+01 1.000000000000e+00 
1.680397112688e+01 1.000000000000e+00 
1.680397112688e+01 1.000000000000e+00 
1.709781433961e+01 1.000000000000e+00 
1.709781433961e+01 1.000000000000e+00 
1.738871911921e+01 1.000000000000e+00 
1.738871911921e+01 1.000000000000e+00 
1.767671485134e+01 1.000000000000e+00 
1.767671485134e+01 1.000000000000e+00 
1.796183062747e+01 9.869135544537e-01 
1.796183062747e+01 9.919551464548e-01 
1.824409524482e+01 9.251773952475e-01 
1.824409524482e+01 9.312255099367e-01 
1.852353721519e+01 8.676419189225e-01 
1.852353721519e+01 8.729683185514e-01 
1.880018476764e+01 8.187588687134e-01 
1.880018476764e+01 8.232715240068e-01 
1.907406584525e+01 7.778289943442e-01 
1.907406584525e+01 7.816486182172e-01 
1.934520811079e+01 7.433643032258e-01 
1.934520811079e+01 7.466281154452e-01 
1.961363895232e+01 7.140213329030e-01 
1.961363895232e+01 7.168435702551e-01 
1.987938548567e+01 6.887408006323e-01 
1.987938548567e+01 6.912100132862e-01 
2.014247455395e+01 6.667146678232e-01 
2.014247455395e+01 6.688984253752e-01 
2.040293272997e+01 6.473283682878e-01 
2.040293272997e+01 6.492783785044e-01 
2.066078632467e+01 6.301108450496e-01 
2.066078632467e+01 6.318670635904e-01 
2.091606138624e+01 6.146968256118e-01 
2.091606138624e+01 6.162905022559e-01 
2.116878369686e+01 6.007994503179e-01 
2.116878369686e+01 6.022553348227e-01 
2.141897878317e+01 5.881905849131e-01 
2.141897878317e+01 5.895285201304e-01 
2.166667191915e+01 5.766866092067e-01 
2.166667191915e+01 5.779226886682e-01 
2.191188812483e+01 5.661380660448e-01 
2.191188812483e+01 5.672854834070e-01 
2.215465216843e+01 5.564220369595e-01 
2.215465216843e+01 5.574917164555e-01 
2.239498857147e+01 5.474364589279e-01 
2.239498857147e+01 5.484375288270e-01 
2.263292161056e+01 5.390958374638e-01 
2.263292161056e+01 5.400359897947e-01 
2.286847531945e+01 5.313279752712e-01 
2.286847531945e+01 5.322137422143e-01 
2.310167349079e+01 5.240714482076e-01 
2.310167349079e+01 5.249084167380e-01 
2.333253967804e+01 5.172736374197e-01 
2.333253967804e+01 5.180666176837e-01 
2.356109720316e+01 5.108891798305e-01 
2.356109720316e+01 5.116423384839e-01 
2.378736915530e+01 5.048787371346e-01 
2.378736915530e+01 5.055957038778e-01 
2.401137838949e+01 4.992080091642e-01 
2.401137838949e+01 4.998919625732e-01 
2.423314753134e+01 4.938469365636e-01 
2.423314753134e+01 4.945006737809e-01 
2.445269898152e+01 4.887690516900e-01 
2.445269898152e+01 4.893950454263e-01 
2.467005491734e+01 4.839509464830e-01 
2.467005491734e+01 4.845513919615e-01 
2.488523729422e+01 4.793718332590e-01 
2.488523729422e+01 4.799486871261e-01 
2.509826784711e+01 4.750131799253e-01 
2.509826784711e+01 4.755681926998e-01 
2.530916809488e+01 4.708584051641e-01 
2.530916809488e+01 4.713931484511e-01 
2.551795933881e+01 4.668926224689e-01 
2.551795933881e+01 4.674085119074e-01 
2.572466266963e+01 4.631024238280e-01 
2.572466266963e+01 4.636007385386e-01 
2.592929896600e+01 4.594756962967e-01 
2.592929896600e+01 4.599575954428e-01 
2.613188889870e+01 4.560014654995e-01 
2.613188889870e+01 4.564680024545e-01 
2.633245293470e+01 4.526697616070e-01 
2.633245293470e+01 4.531218961259e-01 
2.653101132936e+01 4.494715042641e-01 
2.653101132936e+01 4.499101129832e-01 
2.672758413963e+01 4.463984029045e-01 
2.672758413963e+01 4.468242884336e-01 
2.692219122191e+01 4.434428705887e-01 
2.692219122191e+01 4.438567694141e-01 
2.711485223325e+01 4.405979490090e-01 
2.711485223325e+01 4.410005383865e-01 
2.730558663516e+01 4.378572429958e-01 
2.730558663516e+01 4.382491469830e-01 
2.749441369170e+01 4.352148632490e-01 
2.749441369170e+01 4.355966580013e-01 
2.768135247625e+01 4.326653759146e-01 
2.768135247625e+01 4.330375943487e-01 
2.786642187247e+01 4.302037582434e-01 
2.786642187247e+01 4.305668941558e-01 
2.804964057500e+01 4.278253594155e-01 
2.804964057500e+01 4.281798711296e-01 
2.823102709034e+01 4.255258658340e-01 
2.823102709034e+01 4.258721794393e-01 
2.841059974053e+01 4.233012702630e-01 
2.841059974053e+01 4.236397824976e-01 
2.858837666689e+01 4.211478443474e-01 
2.858837666689e+01 4.214789251715e-01 
2.876437582464e+01 4.190621141927e-01 
2.876437582464e+01 4.193861090896e-01 
2.893861498963e+01 4.170408383761e-01 
2.893861498963e+01 4.173580704156e-01 
2.911111176485e+01 4.150809882368e-01 
2.911111176485e+01 4.153917599283e-01 
2.928188357197e+01 4.131797303310e-01 
2.928188357197e+01 4.134843252928e-01 
2.945094766098e+01 4.113344104388e-01 
2.945094766098e+01 4.116330949032e-01 
2.961832111052e+01 4.095425392359e-01 
2.961832111052e+01 4.098355634100e-01 
2.978402082546e+01 4.078017793722e-01 
2.978402082546e+01 4.080893786701e-01 
2.994806354328e+01 4.061099336811e-01 
2.994806354328e+01 4.063923298411e-01 
3.011046583142e+01 4.044649345743e-01 
3.011046583142e+01 4.047423366751e-01 
3.027124409672e+01 4.028648342873e-01 
3.027124409672e+01 4.031374396723e-01 
3.043041457957e+01 4.013077961504e-01 
3.043041457957e+01 4.015757912703e-01 
3.058799335738e+01 3.997920865404e-01 
3.058799335738e+01 4.000556477230e-01 
3.074399634768e+01 3.983160675383e-01 
3.074399634768e+01 3.985753616925e-01 
3.089843930846e+01 3.968781902398e-01 
3.089843930846e+01 3.971333754998e-01 
3.105133784124e+01 3.954769886061e-01 
3.105133784124e+01 3.957282149227e-01 
3.120270738832e+01 3.941110738767e-01 
3.120270738832e+01 3.943584835605e-01 
3.135256323889e+01 3.927791293620e-01 
3.135256323889e+01 3.930228575823e-01 
3.150092052907e+01 3.914799057071e-01 
3.150092052907e+01 3.917200809519e-01 
3.164779424804e+01 3.902122164818e-01 
3.164779424804e+01 3.904489609812e-01 
3.179319923193e+01 3.889749342167e-01 
3.179319923193e+01 3.892083643347e-01 
3.193715016398e+01 3.877669866951e-01 
3.193715016398e+01 3.879972132908e-01 
3.207966158651e+01 3.865873534289e-01 
3.207966158651e+01 3.868144821910e-01 
3.222074789468e+01 3.854350625470e-01 
3.222074789468e+01 3.856591943037e-01 
3.236042333961e+01 3.843091878392e-01 
3.236042333961e+01 3.845304188457e-01 
3.249870203111e+01 3.832088460198e-01 
3.249870203111e+01 3.834272682244e-01 
3.263559793463e+01 3.821331942320e-01 
3.263559793463e+01 3.823488955246e-01 
3.277112488002e+01 3.810814276405e-01 
3.277112488002e+01 3.812944920824e-01 
3.290529655535e+01 3.800527773059e-01 
3.290529655535e+01 3.802632853448e-01 
3.303812651273e+01 3.790465081167e-01 
3.303812651273e+01 3.792545367862e-01 
3.316962817094e+01 3.780619168862e-01 
3.316962817094e+01 3.782675399927e-01 
3.329981481222e+01 3.770983306212e-01 
3.329981481222e+01 3.773016189178e-01 
3.342869958796e+01 3.761551048423e-01 
3.342869958796e+01 3.763561261912e-01 
3.355629551528e+01 3.752316220788e-01 
3.355629551528e+01 3.754304416038e-01 
3.368261548278e+01 3.743272903985e-01 
3.368261548278e+01 3.745239706273e-01 
3.380767225007e+01 3.734415420747e-01 
3.380767225007e+01 3.736361430721e-01 
3.393147845034e+01 3.725738323170e-01 
3.393147845034e+01 3.727664118099e-01 
3.405404658994e+01 3.717236381034e-01 
3.405404658994e+01 3.719142515981e-01 
3.417538904792e+01 3.708904570838e-01 
3.417538904792e+01 3.710791579765e-01 
3.429551808150e+01 3.700738065127e-01 
3.429551808150e+01 3.702606461923e-01 
3.441444582560e+01 3.692732222851e-01 
3.441444582560e+01 3.694582502309e-01 
3.453218429222e+01 3.684882580319e-01 
3.453218429222e+01 3.686715219050e-01 
3.464874537296e+01 3.677184842485e-01 
3.464874537296e+01 3.679000299782e-01 
3.476414084434e+01 3.669634874565e-01 
3.476414084434e+01 3.671433593212e-01 
3.487838236120e+01 3.662228694909e-01 
3.487838236120e+01 3.664011101948e-01 
3.499148146213e+01 3.654962467515e-01 
3.499148146213e+01 3.656728974967e-01 
3.510344957168e+01 3.647832495170e-01 
3.510344957168e+01 3.649583500719e-01 
3.521429799980e+01 3.640835213163e-01 
3.521429799980e+01 3.642571100798e-01 
3.532403794400e+01 3.633967183163e-01 
3.532403794400e+01 3.635688323787e-01 
3.543268048871e+01 3.627225087620e-01 
3.543268048871e+01 3.628931839628e-01 
3.554023660747e+01 3.620605724295e-01 
3.554023660747e+01 3.622298434115e-01 
3.564671716519e+01 3.614106001085e-01 
3.564671716519e+01 3.615785003696e-01 
3.575213291727e+01 3.607722931302e-01 
3.575213291727e+01 3.609388550723e-01 
3.585649451188e+01 3.601453629033e-01 
3.585649451188e+01 3.603106178784e-01 
3.595981249202e+01 3.595295304741e-01 
3.595981249202e+01 3.596935088285e-01 
3.606209729169e+01 3.590872572607e-01 
3.606209729169e+01 3.589245261449e-01 
3.616335924104e+01 3.584916013939e-01 
3.616335924104e+01 3.583300890593e-01 
3.626360857141e+01 3.577459668094e-01 
3.626360857141e+01 3.579062879333e-01 
3.636285540837e+01 3.571719151323e-01 
3.636285540837e+01 3.573310717647e-01 
3.646110977685e+01 3.566076975516e-01 
3.646110977685e+01 3.567657155943e-01 
3.655838160307e+01 3.560530850565e-01 
3.655838160307e+01 3.562099896261e-01 
3.665468071061e+01 3.555078558279e-01 
3.665468071061e+01 3.556636712869e-01 
3.675001682841e+01 3.549717949126e-01 
3.675001682841e+01 3.551265448983e-01 
3.684439958667e+01 3.544446939796e-01 
3.684439958667e+01 3.545984014323e-01 
3.693783851586e+01 3.539263510713e-01 
3.693783851586e+01 3.540790382605e-01 
3.703034305466e+01 3.534165703172e-01 
3.703034305466e+01 3.535682588670e-01 
3.712192254881e+01 3.529151617108e-01 
3.712192254881e+01 3.530658726244e-01 
3.721258624699e+01 3.524219409128e-01 
3.721258624699e+01 3.525716945953e-01 
3.730234330879e+01 3.519367289987e-01 
3.730234330879e+01 3.520855452789e-01 
3.739120280040e+01 3.514593522831e-01 
3.739120280040e+01 3.516072504349e-01 
3.747917369664e+01 3.509896421187e-01 
3.747917369664e+01 3.511366408809e-01 
3.756626488560e+01 3.505274346906e-01 
3.756626488560e+01 3.506735522861e-01 
3.765248516150e+01 3.500725708808e-01 
3.765248516150e+01 3.502178250350e-01 
3.773784323258e+01 3.496248960618e-01 
3.773784323258e+01 3.497693040203e-01 
3.782234772267e+01 3.491842599305e-01 
3.782234772267e+01 3.493278384755e-01 
3.790600717004e+01 3.487505163641e-01 
3.790600717004e+01 3.488932818308e-01 
3.798883002307e+01 3.483235232985e-01 
3.798883002307e+01 3.484654915904e-01 
3.807082464508e+01 3.479031425653e-01 
3.807082464508e+01 3.480443291687e-01 
3.815199932188e+01 3.474892397214e-01 
3.815199932188e+01 3.476296597199e-01 
3.823236225151e+01 3.470816839763e-01 
3.823236225151e+01 3.472213520641e-01 
3.831192155190e+01 3.466803480318e-01 
3.831192155190e+01 3.468192785266e-01 
3.839068525948e+01 3.462851079746e-01 
3.839068525948e+01 3.464233148301e-01 
3.846866133085e+01 3.458958431563e-01 
3.846866133085e+01 3.460333399743e-01 
3.854585764132e+01 3.455124360961e-01 
3.854585764132e+01 3.456492361378e-01 
3.862228198662e+01 3.451347723699e-01 