VARIABLES = "X","Y","Z",VELOCITY1_X,VELOCITY1_Y,VELOCITY1_Z
ZONE T="0.000000000000e+00s", 
9.890000000000e+02 0.000000000000e+00 5.000000000000e-01 0.000000000000e+00 0.000000000000e+00 0.000000000000e+00
9.900000000000e+02 0.000000000000e+00 5.000000000000e-01 0.000000000000e+00 0.000000000000e+00 0.000000000000e+00
9.890000000000e+02 0.000000000000e+00 1.500000000000e+00 0.000000000000e+00 0.000000000000e+00 0.000000000000e+00
9.900000000000e+02 0.000000000000e+00 1.500000000000e+00 0.000000000000e+00 0.000000000000e+00 0.000000000000e+00
9.890000000000e+02 0.000000000000e+00 2.500000000000e+00 0.000000000000e+00 0.000000000000e+00 0.000000000000e+00
9.900000000000e+02 0.000000000000e+00 2.500000000000e+00 0.000000000000e+00 0.000000000000e+00 0.000000000000e+00
9.890000000000e+02 0.000000000000e+00 3.500000000000e+00 0.000000000000e+00 0.000000000000e+00 0.000000000000e+00
9.900000000000e+02 0.000000000000e+00 3.500000000000e+00 0.000000000000e+00 0.000000000000e+00 0.000000000000e+00
9.890000000000e+02 0.000000000000e+00 4.500000000000e+00 0.000000000000e+00 0.000000000000e+00 0.000000000000e+00
9.900000000000e+02 0.000000000000e+00 4.500000000000e+00 0.000000000000e+00 0.000000000000e+00 0.000000000000e+00
9.890000000000e+02 0.000000000000e+00 5.500000000000e+00 0.000000000000e+00 0.000000000000e+00 0.000000000000e+00
9.900000000000e+02 0.000000000000e+00 5.500000000000e+00 0.000000000000e+00 0.000000000000e+00 0.000000000000e+00
9.890000000000e+02 0.000000000000e+00 6.500000000000e+00 0.000000000000e+00 0.000000000000e+00 0.000000000000e+00
9.900000000000e+02 0.000000000000e+00 6.500000000000e+00 0.000000000000e+00 0.000000000000e+00 0.000000000000e+00
9.890000000000e+02 0.000000000000e+00 7.500000000000e+00 0.000000000000e+00 0.000000000000e+00 0.000000000000e+00
9.900000000000e+02 0.000000000000e+00 7.500000000000e+00 0.000000000000e+00 0.000000000000e+00 0.000000000000e+00
9.890000000000e+02 0.000000000000e+00 8.500000000000e+00 0.000000000000e+00 0.000000000000e+00 0.000000000000e+00
9.900000000000e+02 0.000000000000e+00 8.500000000000e+00 0.000000000000e+00 0.000000000000e+00 0.000000000000e+00
9.890000000000e+02 0.000000000000e+00 9.500000000000e+00 0.000000000000e+00 0.000000000000e+00 0.000000000000e+00
9.900000000000e+02 0.000000000000e+00 9.500000000000e+00 0.000000000000e+00 0.000000000000e+00 0.000000000000e+00
9.890000000000e+02 0.000000000000e+00 1.050000000000e+01 0.000000000000e+00 0.000000000000e+00 0.000000000000e+00
9.900000000000e+02 0.000000000000e+00 1.050000000000e+01 0.000000000000e+00 0.000000000000e+00 0.000000000000e+00
9.890000000000e+02 0.000000000000e+00 1.150000000000e+01 0.000000000000e+00 0.000000000000e+00 0.000000000000e+00
9.900000000000e+02 0.000000000000e+00 1.150000000000e+01 0.000000000000e+00 0.000000000000e+00 0.000000000000e+00
9.890000000000e+02 0.000000000000e+00 1.250000000000e+01 0.000000000000e+00 0.000000000000e+00 0.000000000000e+00
9.900000000000e+02 0.000000000000e+00 1.250000000000e+01 0.000000000000e+00 0.000000000000e+00 0.000000000000e+00
9.890000000000e+02 0.000000000000e+00 1.350000000000e+01 0.000000000000e+00 0.000000000000e+00 0.000000000000e+00
9.900000000000e+02 0.000000000000e+00 1.350000000000e+01 0.000000000000e+00 0.000000000000e+00 0.000000000000e+00
9.890000000000e+02 0.000000000000e+00 1.450000000000e+01 0.000000000000e+00 0.000000000000e+00 0.000000000000e+00
9.900000000000e+02 0.000000000000e+00 1.450000000000e+01 0.000000000000e+00 0.000000000000e+00 0.000000000000e+00
9.890000000000e+02 0.000000000000e+00 1.550000000000e+01 0.000000000000e+00 0.000000000000e+00 0.000000000000e+00
9.900000000000e+02 0.000000000000e+00 1.550000000000e+01 0.000000000000e+00 0.000000000000e+00 0.000000000000e+00
9.890000000000e+02 0.000000000000e+00 1.650000000000e+01 0.000000000000e+00 0.000000000000e+00 0.000000000000e+00
9.900000000000e+02 0.000000000000e+00 1.650000000000e+01 0.000000000000e+00 0.000000000000e+00 0.000000000000e+00
9.890000000000e+02 0.000000000000e+00 1.750000000000e+01 0.000000000000e+00 0.000000000000e+00 0.000000000000e+00
9.900000000000e+02 0.000000000000e+00 1.750000000000e+01 0.000000000000e+00 0.000000000000e+00 0.000000000000e+00
9.890000000000e+02 0.000000000000e+00 1.850000000000e+01 0.000000000000e+00 0.000000000000e+00 0.000000000000e+00
9.900000000000e+02 0.000000000000e+00 1.850000000000e+01 0.000000000000e+00 0.000000000000e+00 0.000000000000e+00
9.890000000000e+02 0.000000000000e+00 1.950000000000e+01 0.000000000000e+00 0.000000000000e+00 0.000000000000e+00
9.900000000000e+02 0.000000000000e+00 1.950000000000e+01 0.000000000000e+00 0.000000000000e+00 0.000000000000e+00
9.890000000000e+02 0.000000000000e+00 2.050000000000e+01 0.000000000000e+00 0.000000000000e+00 0.000000000000e+00
9.900000000000e+02 0.000000000000e+00 2.050000000000e+01 0.000000000000e+00 0.000000000000e+00 0.000000000000e+00
9.890000000000e+02 0.000000000000e+00 2.150000000000e+01 0.000000000000e+00 0.000000000000e+00 0.000000000000e+00
9.900000000000e+02 0.000000000000e+00 2.150000000000e+01 0.000000000000e+00 0.000000000000e+00 0.000000000000e+00
9.890000000000e+02 0.000000000000e+00 2.250000000000e+01 0.000000000000e+00 0.000000000000e+00 0.000000000000e+00
9.900000000000e+02 0.000000000000e+00 2.250000000000e+01 0.000000000000e+00 0.000000000000e+00 0.000000000000e+00
9.890000000000e+02 0.000000000000e+00 2.350000000000e+01 0.000000000000e+00 0.000000000000e+00 0.000000000000e+00
9.900000000000e+02 0.000000000000e+00 2.350000000000e+01 0.000000000000e+00 0.000000000000e+00 0.000000000000e+00
9.890000000000e+02 0.000000000000e+00 2.450000000000e+01 0.000000000000e+00 0.000000000000e+00 0.000000000000e+00
9.900000000000e+02 0.000000000000e+00 2.450000000000e+01 0.000000000000e+00 0.000000000000e+00 0.000000000000e+00
9.890000000000e+02 0.000000000000e+00 2.550000000000e+01 0.000000000000e+00 0.000000000000e+00 0.000000000000e+00
9.900000000000e+02 0.000000000000e+00 2.550000000000e+01 0.000000000000e+00 0.000000000000e+00 0.000000000000e+00
9.890000000000e+02 0.000000000000e+00 2.650000000000e+01 0.000000000000e+00 0.000000000000e+00 0.000000000000e+00
9.900000000000e+02 0.000000000000e+00 2.650000000000e+01 0.000000000000e+00 0.000000000000e+00 0.000000000000e+00
9.890000000000e+02 0.000000000000e+00 2.750000000000e+01 0.000000000000e+00 0.000000000000e+00 0.000000000000e+00
9.900000000000e+02 0.000000000000e+00 2.750000000000e+01 0.000000000000e+00 0.000000000000e+00 0.000000000000e+00
9.890000000000e+02 0.000000000000e+00 2.850000000000e+01 0.000000000000e+00 0.000000000000e+00 0.000000000000e+00
9.900000000000e+02 0.000000000000e+00 2.850000000000e+01 0.000000000000e+00 0.000000000000e+00 0.000000000000e+00
9.890000000000e+02 0.000000000000e+00 2.950000000000e+01 0.000000000000e+00 0.000000000000e+00 0.000000000000e+00
9.900000000000e+02 0.000000000000e+00 2.950000000000e+01 0.000000000000e+00 0.000000000000e+00 0.000000000000e+00
VARIABLES = "X","Y","Z",VELOCITY1_X,VELOCITY1_Y,VELOCITY1_Z
ZONE T="1.797693134862e+308s", 
9.890000000000e+02 0.000000000000e+00 5.000000000000e-01 2.210317639565e-08 -1.016790084157e-12 0.000000000000e+00
9.900000000000e+02 0.000000000000e+00 5.000000000000e-01 2.210504505967e-08 -9.240045362466e-13 0.000000000000e+00
9.890000000000e+02 0.000000000000e+00 1.500000000000e+00 8.858410368849e-08 -6.109451110387e-12 0.000000000000e+00
9.900000000000e+02 0.000000000000e+00 1.500000000000e+00 8.859159354933e-08 -5.551892482109e-12 0.000000000000e+00
9.890000000000e+02 0.000000000000e+00 2.500000000000e+00 6.822799338449e-08 -1.332566599019e-11 0.000000000000e+00
9.900000000000e+02 0.000000000000e+00 2.500000000000e+00 6.823376307218e-08 -1.210928519134e-11 0.000000000000e+00
9.890000000000e+02 0.000000000000e+00 3.500000000000e+00 5.667758405791e-07 -4.255491383747e-11 0.000000000000e+00
9.900000000000e+02 0.000000000000e+00 3.500000000000e+00 5.668237870453e-07 -3.867093146810e-11 0.000000000000e+00
9.890000000000e+02 0.000000000000e+00 4.500000000000e+00 1.114027405711e-08 -6.916128462191e-11 0.000000000000e+00
9.900000000000e+02 0.000000000000e+00 4.500000000000e+00 1.114121782017e-08 -6.284811670848e-11 0.000000000000e+00
9.890000000000e+02 0.000000000000e+00 5.500000000000e+00 2.912141215589e-09 -6.981577764835e-11 0.000000000000e+00
9.900000000000e+02 0.000000000000e+00 5.500000000000e+00 2.912391673701e-09 -6.344289179041e-11 0.000000000000e+00
9.890000000000e+02 0.000000000000e+00 6.500000000000e+00 1.484775623447e-08 -7.067906588161e-11 0.000000000000e+00
9.900000000000e+02 0.000000000000e+00 6.500000000000e+00 1.484908384852e-08 -6.422761683648e-11 0.000000000000e+00
9.890000000000e+02 0.000000000000e+00 7.500000000000e+00 1.698302948301e-08 -7.223915849941e-11 0.000000000000e+00
9.900000000000e+02 0.000000000000e+00 7.500000000000e+00 1.698456060392e-08 -6.564575856923e-11 0.000000000000e+00
9.890000000000e+02 0.000000000000e+00 8.500000000000e+00 4.858463599876e-07 -9.706367625009e-11 0.000000000000e+00
9.900000000000e+02 0.000000000000e+00 8.500000000000e+00 4.858904559859e-07 -8.821292243068e-11 0.000000000000e+00
9.890000000000e+02 0.000000000000e+00 9.500000000000e+00 2.119949867666e-08 -1.221062467354e-10 0.000000000000e+00
9.900000000000e+02 0.000000000000e+00 9.500000000000e+00 2.120142616001e-08 -1.109768257960e-10 0.000000000000e+00
9.890000000000e+02 0.000000000000e+00 1.050000000000e+01 1.110512162936e-08 -1.237214166608e-10 0.000000000000e+00
9.900000000000e+02 0.000000000000e+00 1.050000000000e+01 1.110614508802e-08 -1.124452083245e-10 0.000000000000e+00
9.890000000000e+02 0.000000000000e+00 1.150000000000e+01 1.852855016742e-10 -1.242994488838e-10 0.000000000000e+00
9.900000000000e+02 0.000000000000e+00 1.150000000000e+01 1.853056692159e-10 -1.129708549778e-10 0.000000000000e+00
9.890000000000e+02 0.000000000000e+00 1.250000000000e+01 4.801577563700e-08 -1.299984922617e-10 0.000000000000e+00
9.900000000000e+02 0.000000000000e+00 1.250000000000e+01 4.802626171995e-08 -1.181807319358e-10 0.000000000000e+00
9.890000000000e+02 0.000000000000e+00 1.350000000000e+01 2.530709169050e-08 -1.386932769593e-10 0.000000000000e+00
9.900000000000e+02 0.000000000000e+00 1.350000000000e+01 2.531263844045e-08 -1.261290327389e-10 0.000000000000e+00
9.890000000000e+02 0.000000000000e+00 1.450000000000e+01 2.755762599460e-08 -1.450118296751e-10 0.000000000000e+00
9.900000000000e+02 0.000000000000e+00 1.450000000000e+01 2.756371595731e-08 -1.319064586306e-10 0.000000000000e+00
9.890000000000e+02 0.000000000000e+00 1.550000000000e+01 1.574416670700e-08 -1.502333767824e-10 0.000000000000e+00
9.900000000000e+02 0.000000000000e+00 1.550000000000e+01 1.574768111998e-08 -1.366823225420e-10 0.000000000000e+00
9.890000000000e+02 0.000000000000e+00 1.650000000000e+01 6.487077855543e-08 -1.601248483944e-10 0.000000000000e+00
9.900000000000e+02 0.000000000000e+00 1.650000000000e+01 6.488550036442e-08 -1.457352826061e-10 0.000000000000e+00
9.890000000000e+02 0.000000000000e+00 1.750000000000e+01 1.548796238190e-07 -1.872302127151e-10 0.000000000000e+00
9.900000000000e+02 0.000000000000e+00 1.750000000000e+01 1.549149579503e-07 -1.705482024835e-10 0.000000000000e+00
9.890000000000e+02 0.000000000000e+00 1.850000000000e+01 8.349772092246e-07 -3.097463253747e-10 0.000000000000e+00
9.900000000000e+02 0.000000000000e+00 1.850000000000e+01 8.351683577503e-07 -2.827238654616e-10 0.000000000000e+00
9.890000000000e+02 0.000000000000e+00 1.950000000000e+01 3.485811187159e-09 -4.137028194025e-10 0.000000000000e+00
9.900000000000e+02 0.000000000000e+00 1.950000000000e+01 3.486671053819e-09 -3.779122281017e-10 0.000000000000e+00
9.890000000000e+02 0.000000000000e+00 2.050000000000e+01 8.773384653898e-10 -4.145891494317e-10 0.000000000000e+00
9.900000000000e+02 0.000000000000e+00 2.050000000000e+01 8.777341125371e-10 -3.787460608024e-10 0.000000000000e+00
9.890000000000e+02 0.000000000000e+00 2.150000000000e+01 1.728256884307e-09 -4.159116054150e-10 0.000000000000e+00
9.900000000000e+02 0.000000000000e+00 2.150000000000e+01 1.729995657072e-09 -3.800227713749e-10 0.000000000000e+00
9.890000000000e+02 0.000000000000e+00 2.250000000000e+01 4.544543655033e-09 -4.200291867659e-10 0.000000000000e+00
9.900000000000e+02 0.000000000000e+00 2.250000000000e+01 4.550376865538e-09 -3.840171057799e-10 0.000000000000e+00
9.890000000000e+02 0.000000000000e+00 2.350000000000e+01 1.156718957497e-06 -1.248466415848e-09 0.000000000000e+00
9.900000000000e+02 0.000000000000e+00 2.350000000000e+01 1.158326652247e-06 -1.189509801052e-09 0.000000000000e+00
9.890000000000e+02 0.000000000000e+00 2.450000000000e+01 5.305466102856e-08 -2.114475751728e-09 0.000000000000e+00
9.900000000000e+02 0.000000000000e+00 2.450000000000e+01 5.313014369367e-08 -2.032235196733e-09 0.000000000000e+00
9.890000000000e+02 0.000000000000e+00 2.550000000000e+01 6.660025084025e-08 -2.212404678790e-09 0.000000000000e+00
9.900000000000e+02 0.000000000000e+00 2.550000000000e+01 6.671098550718e-08 -2.130490821590e-09 0.000000000000e+00
9.890000000000e+02 0.000000000000e+00 2.650000000000e+01 1.564755693724e-06 -3.680150806165e-09 0.000000000000e+00
9.900000000000e+02 0.000000000000e+00 2.650000000000e+01 1.567631015187e-06 -3.631475428916e-09 0.000000000000e+00
9.890000000000e+02 0.000000000000e+00 2.750000000000e+01 3.705253962113e-07 -5.425342430170e-09 0.000000000000e+00
9.900000000000e+02 0.000000000000e+00 2.750000000000e+01 3.712081201241e-07 -5.417037121546e-09 0.000000000000e+00
9.890000000000e+02 0.000000000000e+00 2.850000000000e+01 3.668244277105e-09 -5.763378039377e-09 0.000000000000e+00
9.900000000000e+02 0.000000000000e+00 2.850000000000e+01 3.675044579414e-09 -5.763094805310e-09 0.000000000000e+00
9.890000000000e+02 0.000000000000e+00 2.950000000000e+01 1.565826599235e-09 -5.768165004119e-09 0.000000000000e+00
9.900000000000e+02 0.000000000000e+00 2.950000000000e+01 1.568828567166e-09 -5.768083078352e-09 0.000000000000e+00
