 TITLE = "Profiles along polylines"
 VARIABLES = "DIST" "HEAD" "VELOCITY_X1" "VELOCITY_Y1" "VELOCITY_Z1" 
 ZONE T="TIME=0.000000000000e+00"
0.000000000000e+00 3.000000000000e+01 0.000000000000e+00 0.000000000000e+00 0.000000000000e+00 
1.000000000000e+00 3.000000000000e+01 0.000000000000e+00 0.000000000000e+00 0.000000000000e+00 
2.000000000000e+00 3.000000000000e+01 0.000000000000e+00 0.000000000000e+00 0.000000000000e+00 
3.000000000000e+00 3.000000000000e+01 0.000000000000e+00 0.000000000000e+00 0.000000000000e+00 
4.000000000000e+00 3.000000000000e+01 0.000000000000e+00 0.000000000000e+00 0.000000000000e+00 
5.000000000000e+00 3.000000000000e+01 0.000000000000e+00 0.000000000000e+00 0.000000000000e+00 
6.000000000000e+00 3.000000000000e+01 0.000000000000e+00 0.000000000000e+00 0.000000000000e+00 
7.000000000000e+00 3.000000000000e+01 0.000000000000e+00 0.000000000000e+00 0.000000000000e+00 
8.000000000000e+00 3.000000000000e+01 0.000000000000e+00 0.000000000000e+00 0.000000000000e+00 
9.000000000000e+00 3.000000000000e+01 0.000000000000e+00 0.000000000000e+00 0.000000000000e+00 
1.000000000000e+01 3.000000000000e+01 0.000000000000e+00 0.000000000000e+00 0.000000000000e+00 
1.100000000000e+01 3.000000000000e+01 0.000000000000e+00 0.000000000000e+00 0.000000000000e+00 
1.200000000000e+01 3.000000000000e+01 0.000000000000e+00 0.000000000000e+00 0.000000000000e+00 
1.300000000000e+01 3.000000000000e+01 0.000000000000e+00 0.000000000000e+00 0.000000000000e+00 
1.400000000000e+01 3.000000000000e+01 0.000000000000e+00 0.000000000000e+00 0.000000000000e+00 
1.500000000000e+01 3.000000000000e+01 0.000000000000e+00 0.000000000000e+00 0.000000000000e+00 
1.600000000000e+01 3.000000000000e+01 0.000000000000e+00 0.000000000000e+00 0.000000000000e+00 
1.700000000000e+01 3.000000000000e+01 0.000000000000e+00 0.000000000000e+00 0.000000000000e+00 
1.800000000000e+01 3.000000000000e+01 0.000000000000e+00 0.000000000000e+00 0.000000000000e+00 
1.900000000000e+01 3.000000000000e+01 0.000000000000e+00 0.000000000000e+00 0.000000000000e+00 
2.000000000000e+01 3.000000000000e+01 0.000000000000e+00 0.000000000000e+00 0.000000000000e+00 
2.100000000000e+01 3.000000000000e+01 0.000000000000e+00 0.000000000000e+00 0.000000000000e+00 
2.200000000000e+01 3.000000000000e+01 0.000000000000e+00 0.000000000000e+00 0.000000000000e+00 
2.300000000000e+01 3.000000000000e+01 0.000000000000e+00 0.000000000000e+00 0.000000000000e+00 
2.400000000000e+01 3.000000000000e+01 0.000000000000e+00 0.000000000000e+00 0.000000000000e+00 
2.500000000000e+01 3.000000000000e+01 0.000000000000e+00 0.000000000000e+00 0.000000000000e+00 
2.600000000000e+01 3.000000000000e+01 0.000000000000e+00 0.000000000000e+00 0.000000000000e+00 
2.700000000000e+01 3.000000000000e+01 0.000000000000e+00 0.000000000000e+00 0.000000000000e+00 
2.800000000000e+01 3.000000000000e+01 0.000000000000e+00 0.000000000000e+00 0.000000000000e+00 
2.900000000000e+01 3.000000000000e+01 0.000000000000e+00 0.000000000000e+00 0.000000000000e+00 
3.000000000000e+01 3.000000000000e+01 0.000000000000e+00 0.000000000000e+00 0.000000000000e+00 
 TITLE = "Profiles along polylines"
 VARIABLES = "DIST" "HEAD" "VELOCITY_X1" "VELOCITY_Y1" "VELOCITY_Z1" 
 ZONE T="TIME=1.797693134862e+308"
0.000000000000e+00 3.009814303489e+01 2.127861280227e-08 -7.564531026215e-12 0.000000000000e+00 
1.000000000000e+00 3.009814337508e+01 5.327897172406e-08 -2.650586368281e-11 0.000000000000e+00 
2.000000000000e+00 3.009814388506e+01 7.548095931882e-08 -7.228290584915e-11 0.000000000000e+00 
3.000000000000e+00 3.009814532915e+01 3.056541442828e-07 -2.078004021583e-10 0.000000000000e+00 
4.000000000000e+00 3.009814588422e+01 2.781756245331e-07 -4.153997791310e-10 0.000000000000e+00 
5.000000000000e+00 3.009819178011e+01 6.764680674389e-09 -5.167324155738e-10 0.000000000000e+00 
6.000000000000e+00 3.009836913460e+01 8.540722415352e-09 -5.222432231264e-10 0.000000000000e+00 
7.000000000000e+00 3.009840440467e+01 1.530266808646e-08 -5.309024832301e-10 0.000000000000e+00 
8.000000000000e+00 3.009843590687e+01 2.416592495795e-07 -6.245568282779e-10 0.000000000000e+00 
9.000000000000e+00 3.009843737019e+01 2.436845137288e-07 -8.014911766368e-10 0.000000000000e+00 
1.000000000000e+01 3.009847927122e+01 1.552571419596e-08 -8.960150210841e-10 0.000000000000e+00 
1.100000000000e+01 3.009856032726e+01 5.426449217269e-09 -9.036942682843e-10 0.000000000000e+00 
1.200000000000e+01 3.010347825048e+01 2.254135363341e-08 -9.172966358836e-10 0.000000000000e+00 
1.300000000000e+01 3.010349877049e+01 3.428379704917e-08 -9.465692225960e-10 0.000000000000e+00 
1.400000000000e+01 3.010353919582e+01 2.471363555162e-08 -9.770035332372e-10 0.000000000000e+00 
1.500000000000e+01 3.010357732152e+01 2.023927444516e-08 -1.000244798853e-09 0.000000000000e+00 
1.600000000000e+01 3.010364550241e+01 3.765887720652e-08 -1.030286929515e-09 0.000000000000e+00 
1.700000000000e+01 3.010366270416e+01 1.026349701847e-07 -1.103228476811e-09 0.000000000000e+00 
1.800000000000e+01 3.010367064332e+01 4.622685462447e-07 -1.397111073396e-09 0.000000000000e+00 
1.900000000000e+01 3.010367272860e+01 3.915625429680e-07 -1.841364657372e-09 0.000000000000e+00 
2.000000000000e+01 3.010429726039e+01 2.034796743724e-09 -2.046205083835e-09 0.000000000000e+00 
2.100000000000e+01 3.010681544932e+01 1.184272526019e-09 -2.048017106041e-09 0.000000000000e+00 
2.200000000000e+01 3.010814408468e+01 2.790650968987e-09 -2.050526866006e-09 0.000000000000e+00 
2.300000000000e+01 3.010866000849e+01 5.113691898459e-07 -2.387648243205e-09 0.000000000000e+00 
2.400000000000e+01 3.010866271673e+01 5.327147580747e-07 -3.072330439907e-09 0.000000000000e+00 
2.500000000000e+01 3.010873692989e+01 5.264063363838e-08 -3.456243502313e-09 0.000000000000e+00 
2.600000000000e+01 3.010879733305e+01 7.165447823549e-07 -3.961656899904e-09 0.000000000000e+00 
2.700000000000e+01 3.010880060103e+01 8.499983646068e-07 -4.991093489790e-09 0.000000000000e+00 
2.800000000000e+01 3.010881788085e+01 1.643465522346e-07 -5.657681242071e-09 0.000000000000e+00 
2.900000000000e+01 3.011063128232e+01 2.298711615048e-09 -5.767195868217e-09 0.000000000000e+00 
3.000000000000e+01 3.011488202941e+01 1.375304045557e-09 -5.768706497728e-09 0.000000000000e+00 
