VARIABLES = "X","Y","Z",VELOCITY1_X,VELOCITY1_Y,VELOCITY1_Z
ZONE T="0.000000000000e+00s", 
4.990000000000e+02 0.000000000000e+00 5.000000000000e-01 0.000000000000e+00 0.000000000000e+00 0.000000000000e+00
5.000000000000e+02 0.000000000000e+00 5.000000000000e-01 0.000000000000e+00 0.000000000000e+00 0.000000000000e+00
4.990000000000e+02 0.000000000000e+00 1.500000000000e+00 0.000000000000e+00 0.000000000000e+00 0.000000000000e+00
5.000000000000e+02 0.000000000000e+00 1.500000000000e+00 0.000000000000e+00 0.000000000000e+00 0.000000000000e+00
4.990000000000e+02 0.000000000000e+00 2.500000000000e+00 0.000000000000e+00 0.000000000000e+00 0.000000000000e+00
5.000000000000e+02 0.000000000000e+00 2.500000000000e+00 0.000000000000e+00 0.000000000000e+00 0.000000000000e+00
4.990000000000e+02 0.000000000000e+00 3.500000000000e+00 0.000000000000e+00 0.000000000000e+00 0.000000000000e+00
5.000000000000e+02 0.000000000000e+00 3.500000000000e+00 0.000000000000e+00 0.000000000000e+00 0.000000000000e+00
4.990000000000e+02 0.000000000000e+00 4.500000000000e+00 0.000000000000e+00 0.000000000000e+00 0.000000000000e+00
5.000000000000e+02 0.000000000000e+00 4.500000000000e+00 0.000000000000e+00 0.000000000000e+00 0.000000000000e+00
4.990000000000e+02 0.000000000000e+00 5.500000000000e+00 0.000000000000e+00 0.000000000000e+00 0.000000000000e+00
5.000000000000e+02 0.000000000000e+00 5.500000000000e+00 0.000000000000e+00 0.000000000000e+00 0.000000000000e+00
4.990000000000e+02 0.000000000000e+00 6.500000000000e+00 0.000000000000e+00 0.000000000000e+00 0.000000000000e+00
5.000000000000e+02 0.000000000000e+00 6.500000000000e+00 0.000000000000e+00 0.000000000000e+00 0.000000000000e+00
4.990000000000e+02 0.000000000000e+00 7.500000000000e+00 0.000000000000e+00 0.000000000000e+00 0.000000000000e+00
5.000000000000e+02 0.000000000000e+00 7.500000000000e+00 0.000000000000e+00 0.000000000000e+00 0.000000000000e+00
4.990000000000e+02 0.000000000000e+00 8.500000000000e+00 0.000000000000e+00 0.000000000000e+00 0.000000000000e+00
5.000000000000e+02 0.000000000000e+00 8.500000000000e+00 0.000000000000e+00 0.000000000000e+00 0.000000000000e+00
4.990000000000e+02 0.000000000000e+00 9.500000000000e+00 0.000000000000e+00 0.000000000000e+00 0.000000000000e+00
5.000000000000e+02 0.000000000000e+00 9.500000000000e+00 0.000000000000e+00 0.000000000000e+00 0.000000000000e+00
4.990000000000e+02 0.000000000000e+00 1.050000000000e+01 0.000000000000e+00 0.000000000000e+00 0.000000000000e+00
5.000000000000e+02 0.000000000000e+00 1.050000000000e+01 0.000000000000e+00 0.000000000000e+00 0.000000000000e+00
4.990000000000e+02 0.000000000000e+00 1.150000000000e+01 0.000000000000e+00 0.000000000000e+00 0.000000000000e+00
5.000000000000e+02 0.000000000000e+00 1.150000000000e+01 0.000000000000e+00 0.000000000000e+00 0.000000000000e+00
4.990000000000e+02 0.000000000000e+00 1.250000000000e+01 0.000000000000e+00 0.000000000000e+00 0.000000000000e+00
5.000000000000e+02 0.000000000000e+00 1.250000000000e+01 0.000000000000e+00 0.000000000000e+00 0.000000000000e+00
4.990000000000e+02 0.000000000000e+00 1.350000000000e+01 0.000000000000e+00 0.000000000000e+00 0.000000000000e+00
5.000000000000e+02 0.000000000000e+00 1.350000000000e+01 0.000000000000e+00 0.000000000000e+00 0.000000000000e+00
4.990000000000e+02 0.000000000000e+00 1.450000000000e+01 0.000000000000e+00 0.000000000000e+00 0.000000000000e+00
5.000000000000e+02 0.000000000000e+00 1.450000000000e+01 0.000000000000e+00 0.000000000000e+00 0.000000000000e+00
4.990000000000e+02 0.000000000000e+00 1.550000000000e+01 0.000000000000e+00 0.000000000000e+00 0.000000000000e+00
5.000000000000e+02 0.000000000000e+00 1.550000000000e+01 0.000000000000e+00 0.000000000000e+00 0.000000000000e+00
4.990000000000e+02 0.000000000000e+00 1.650000000000e+01 0.000000000000e+00 0.000000000000e+00 0.000000000000e+00
5.000000000000e+02 0.000000000000e+00 1.650000000000e+01 0.000000000000e+00 0.000000000000e+00 0.000000000000e+00
4.990000000000e+02 0.000000000000e+00 1.750000000000e+01 0.000000000000e+00 0.000000000000e+00 0.000000000000e+00
5.000000000000e+02 0.000000000000e+00 1.750000000000e+01 0.000000000000e+00 0.000000000000e+00 0.000000000000e+00
4.990000000000e+02 0.000000000000e+00 1.850000000000e+01 0.000000000000e+00 0.000000000000e+00 0.000000000000e+00
5.000000000000e+02 0.000000000000e+00 1.850000000000e+01 0.000000000000e+00 0.000000000000e+00 0.000000000000e+00
4.990000000000e+02 0.000000000000e+00 1.950000000000e+01 0.000000000000e+00 0.000000000000e+00 0.000000000000e+00
5.000000000000e+02 0.000000000000e+00 1.950000000000e+01 0.000000000000e+00 0.000000000000e+00 0.000000000000e+00
4.990000000000e+02 0.000000000000e+00 2.050000000000e+01 0.000000000000e+00 0.000000000000e+00 0.000000000000e+00
5.000000000000e+02 0.000000000000e+00 2.050000000000e+01 0.000000000000e+00 0.000000000000e+00 0.000000000000e+00
4.990000000000e+02 0.000000000000e+00 2.150000000000e+01 0.000000000000e+00 0.000000000000e+00 0.000000000000e+00
5.000000000000e+02 0.000000000000e+00 2.150000000000e+01 0.000000000000e+00 0.000000000000e+00 0.000000000000e+00
4.990000000000e+02 0.000000000000e+00 2.250000000000e+01 0.000000000000e+00 0.000000000000e+00 0.000000000000e+00
5.000000000000e+02 0.000000000000e+00 2.250000000000e+01 0.000000000000e+00 0.000000000000e+00 0.000000000000e+00
4.990000000000e+02 0.000000000000e+00 2.350000000000e+01 0.000000000000e+00 0.000000000000e+00 0.000000000000e+00
5.000000000000e+02 0.000000000000e+00 2.350000000000e+01 0.000000000000e+00 0.000000000000e+00 0.000000000000e+00
4.990000000000e+02 0.000000000000e+00 2.450000000000e+01 0.000000000000e+00 0.000000000000e+00 0.000000000000e+00
5.000000000000e+02 0.000000000000e+00 2.450000000000e+01 0.000000000000e+00 0.000000000000e+00 0.000000000000e+00
4.990000000000e+02 0.000000000000e+00 2.550000000000e+01 0.000000000000e+00 0.000000000000e+00 0.000000000000e+00
5.000000000000e+02 0.000000000000e+00 2.550000000000e+01 0.000000000000e+00 0.000000000000e+00 0.000000000000e+00
4.990000000000e+02 0.000000000000e+00 2.650000000000e+01 0.000000000000e+00 0.000000000000e+00 0.000000000000e+00
5.000000000000e+02 0.000000000000e+00 2.650000000000e+01 0.000000000000e+00 0.000000000000e+00 0.000000000000e+00
4.990000000000e+02 0.000000000000e+00 2.750000000000e+01 0.000000000000e+00 0.000000000000e+00 0.000000000000e+00
5.000000000000e+02 0.000000000000e+00 2.750000000000e+01 0.000000000000e+00 0.000000000000e+00 0.000000000000e+00
4.990000000000e+02 0.000000000000e+00 2.850000000000e+01 0.000000000000e+00 0.000000000000e+00 0.000000000000e+00
5.000000000000e+02 0.000000000000e+00 2.850000000000e+01 0.000000000000e+00 0.000000000000e+00 0.000000000000e+00
4.990000000000e+02 0.000000000000e+00 2.950000000000e+01 0.000000000000e+00 0.000000000000e+00 0.000000000000e+00
5.000000000000e+02 0.000000000000e+00 2.950000000000e+01 0.000000000000e+00 0.000000000000e+00 0.000000000000e+00
VARIABLES = "X","Y","Z",VELOCITY1_X,VELOCITY1_Y,VELOCITY1_Z
ZONE T="1.797693134862e+308s", 
4.990000000000e+02 0.000000000000e+00 5.000000000000e-01 1.227031280326e-08 -1.224343287973e-11 0.000000000000e+00
5.000000000000e+02 0.000000000000e+00 5.000000000000e-01 1.229479962456e-08 -1.224288834265e-11 0.000000000000e+00
4.990000000000e+02 0.000000000000e+00 1.500000000000e+00 4.917618510918e-08 -7.355316785330e-11 0.000000000000e+00
5.000000000000e+02 0.000000000000e+00 1.500000000000e+00 4.927432166761e-08 -7.355009424777e-11 0.000000000000e+00
4.990000000000e+02 0.000000000000e+00 2.500000000000e+00 3.787549993662e-08 -1.604071010854e-10 0.000000000000e+00
5.000000000000e+02 0.000000000000e+00 2.500000000000e+00 3.795108468574e-08 -1.604002135563e-10 0.000000000000e+00
4.990000000000e+02 0.000000000000e+00 3.500000000000e+00 3.146298870957e-07 -5.121348066294e-10 0.000000000000e+00
5.000000000000e+02 0.000000000000e+00 3.500000000000e+00 3.152577673571e-07 -5.121126379676e-10 0.000000000000e+00
4.990000000000e+02 0.000000000000e+00 4.500000000000e+00 6.183786393711e-09 -8.322033267625e-10 0.000000000000e+00
5.000000000000e+02 0.000000000000e+00 4.500000000000e+00 6.196126889404e-09 -8.321646982945e-10 0.000000000000e+00
4.990000000000e+02 0.000000000000e+00 5.500000000000e+00 1.615285304846e-09 -8.399849729948e-10 0.000000000000e+00
5.000000000000e+02 0.000000000000e+00 5.500000000000e+00 1.618508938745e-09 -8.399458710223e-10 0.000000000000e+00
4.990000000000e+02 0.000000000000e+00 6.500000000000e+00 8.219466390918e-09 -8.497996590093e-10 0.000000000000e+00
5.000000000000e+02 0.000000000000e+00 6.500000000000e+00 8.235871881022e-09 -8.497601536018e-10 0.000000000000e+00
4.990000000000e+02 0.000000000000e+00 7.500000000000e+00 9.397528438164e-09 -8.673798372932e-10 0.000000000000e+00
5.000000000000e+02 0.000000000000e+00 7.500000000000e+00 9.416285723601e-09 -8.673395702205e-10 0.000000000000e+00
4.990000000000e+02 0.000000000000e+00 8.500000000000e+00 2.687501132680e-07 -1.144973342321e-09 0.000000000000e+00
5.000000000000e+02 0.000000000000e+00 8.500000000000e+00 2.692865447269e-07 -1.144921950358e-09 0.000000000000e+00
4.990000000000e+02 0.000000000000e+00 9.500000000000e+00 1.172581204671e-08 -1.424846294396e-09 0.000000000000e+00
5.000000000000e+02 0.000000000000e+00 9.500000000000e+00 1.174921717298e-08 -1.424781552677e-09 0.000000000000e+00
4.990000000000e+02 0.000000000000e+00 1.050000000000e+01 6.138912016934e-09 -1.442674066074e-09 0.000000000000e+00
5.000000000000e+02 0.000000000000e+00 1.050000000000e+01 6.151165918506e-09 -1.442608493198e-09 0.000000000000e+00
4.990000000000e+02 0.000000000000e+00 1.150000000000e+01 1.016370566777e-10 -1.448902299955e-09 0.000000000000e+00
5.000000000000e+02 0.000000000000e+00 1.150000000000e+01 1.018400152833e-10 -1.448836482979e-09 0.000000000000e+00
4.990000000000e+02 0.000000000000e+00 1.250000000000e+01 2.499732925320e-08 -1.474030120067e-09 0.000000000000e+00
5.000000000000e+02 0.000000000000e+00 1.250000000000e+01 2.504738397708e-08 -1.473964189319e-09 0.000000000000e+00
4.990000000000e+02 0.000000000000e+00 1.350000000000e+01 1.317146454806e-08 -1.512238021135e-09 0.000000000000e+00
5.000000000000e+02 0.000000000000e+00 1.350000000000e+01 1.319783944046e-08 -1.512172401228e-09 0.000000000000e+00
4.990000000000e+02 0.000000000000e+00 1.450000000000e+01 1.433577959580e-08 -1.539775883150e-09 0.000000000000e+00
5.000000000000e+02 0.000000000000e+00 1.450000000000e+01 1.436448655398e-08 -1.539710406547e-09 0.000000000000e+00
4.990000000000e+02 0.000000000000e+00 1.550000000000e+01 8.186082326258e-09 -1.562323275053e-09 0.000000000000e+00
5.000000000000e+02 0.000000000000e+00 1.550000000000e+01 8.202475137228e-09 -1.562257799813e-09 0.000000000000e+00
4.990000000000e+02 0.000000000000e+00 1.650000000000e+01 3.370284010203e-08 -1.604263884681e-09 0.000000000000e+00
5.000000000000e+02 0.000000000000e+00 1.650000000000e+01 3.377033371923e-08 -1.604198426382e-09 0.000000000000e+00
4.990000000000e+02 0.000000000000e+00 1.750000000000e+01 8.044920960506e-08 -1.718553697459e-09 0.000000000000e+00
5.000000000000e+02 0.000000000000e+00 1.750000000000e+01 8.061031994077e-08 -1.718488096805e-09 0.000000000000e+00
4.990000000000e+02 0.000000000000e+00 1.850000000000e+01 4.336700108887e-07 -2.233310169029e-09 0.000000000000e+00
5.000000000000e+02 0.000000000000e+00 1.850000000000e+01 4.345384986845e-07 -2.233243992476e-09 0.000000000000e+00
4.990000000000e+02 0.000000000000e+00 1.950000000000e+01 1.808322914103e-09 -2.669258706964e-09 0.000000000000e+00
5.000000000000e+02 0.000000000000e+00 1.950000000000e+01 1.811944422090e-09 -2.669194802111e-09 0.000000000000e+00
4.990000000000e+02 0.000000000000e+00 2.050000000000e+01 4.489801491186e-10 -2.671518993818e-09 0.000000000000e+00
5.000000000000e+02 0.000000000000e+00 2.050000000000e+01 4.498795161743e-10 -2.671455132766e-09 0.000000000000e+00
4.990000000000e+02 0.000000000000e+00 2.150000000000e+01 8.516724282230e-10 -2.672822398953e-09 0.000000000000e+00
5.000000000000e+02 0.000000000000e+00 2.150000000000e+01 8.533795081962e-10 -2.672758565768e-09 0.000000000000e+00
4.990000000000e+02 0.000000000000e+00 2.250000000000e+01 2.197262980022e-09 -2.675878700761e-09 0.000000000000e+00
5.000000000000e+02 0.000000000000e+00 2.250000000000e+01 2.201668569171e-09 -2.675814962291e-09 0.000000000000e+00
4.990000000000e+02 0.000000000000e+00 2.350000000000e+01 5.553809938787e-07 -3.234890832809e-09 0.000000000000e+00
5.000000000000e+02 0.000000000000e+00 2.350000000000e+01 5.564946873438e-07 -3.234850068603e-09 0.000000000000e+00
4.990000000000e+02 0.000000000000e+00 2.450000000000e+01 2.546788699189e-08 -3.817158023829e-09 0.000000000000e+00
5.000000000000e+02 0.000000000000e+00 2.450000000000e+01 2.551895744075e-08 -3.817117926427e-09 0.000000000000e+00
4.990000000000e+02 0.000000000000e+00 2.550000000000e+01 3.192277394522e-08 -3.874693960823e-09 0.000000000000e+00
5.000000000000e+02 0.000000000000e+00 2.550000000000e+01 3.198678975165e-08 -3.874654182602e-09 0.000000000000e+00
4.990000000000e+02 0.000000000000e+00 2.650000000000e+01 7.492128291934e-07 -4.657834851192e-09 0.000000000000e+00
5.000000000000e+02 0.000000000000e+00 2.650000000000e+01 7.507152764667e-07 -4.657842999619e-09 0.000000000000e+00
4.990000000000e+02 0.000000000000e+00 2.750000000000e+01 1.774041622729e-07 -5.586738006161e-09 0.000000000000e+00
5.000000000000e+02 0.000000000000e+00 2.750000000000e+01 1.777599233067e-07 -5.586740325830e-09 0.000000000000e+00
4.990000000000e+02 0.000000000000e+00 2.850000000000e+01 1.756273749889e-09 -5.766346442064e-09 0.000000000000e+00
5.000000000000e+02 0.000000000000e+00 2.850000000000e+01 1.759795672373e-09 -5.766346297196e-09 0.000000000000e+00
4.990000000000e+02 0.000000000000e+00 2.950000000000e+01 7.496325836813e-10 -5.768858780486e-09 0.000000000000e+00
5.000000000000e+02 0.000000000000e+00 2.950000000000e+01 7.511358379857e-10 -5.768858751495e-09 0.000000000000e+00
