VARIABLES = "X","Y","Z",VELOCITY1_X,VELOCITY1_Y,VELOCITY1_Z
ZONE T="0.000000000000e+00s", 
9.990000000000e+02 0.000000000000e+00 5.000000000000e-01 0.000000000000e+00 0.000000000000e+00 0.000000000000e+00
9.990000000000e+02 0.000000000000e+00 1.500000000000e+00 0.000000000000e+00 0.000000000000e+00 0.000000000000e+00
9.990000000000e+02 0.000000000000e+00 2.500000000000e+00 0.000000000000e+00 0.000000000000e+00 0.000000000000e+00
9.990000000000e+02 0.000000000000e+00 3.500000000000e+00 0.000000000000e+00 0.000000000000e+00 0.000000000000e+00
9.990000000000e+02 0.000000000000e+00 4.500000000000e+00 0.000000000000e+00 0.000000000000e+00 0.000000000000e+00
9.990000000000e+02 0.000000000000e+00 5.500000000000e+00 0.000000000000e+00 0.000000000000e+00 0.000000000000e+00
9.990000000000e+02 0.000000000000e+00 6.500000000000e+00 0.000000000000e+00 0.000000000000e+00 0.000000000000e+00
9.990000000000e+02 0.000000000000e+00 7.500000000000e+00 0.000000000000e+00 0.000000000000e+00 0.000000000000e+00
9.990000000000e+02 0.000000000000e+00 8.500000000000e+00 0.000000000000e+00 0.000000000000e+00 0.000000000000e+00
9.990000000000e+02 0.000000000000e+00 9.500000000000e+00 0.000000000000e+00 0.000000000000e+00 0.000000000000e+00
9.990000000000e+02 0.000000000000e+00 1.050000000000e+01 0.000000000000e+00 0.000000000000e+00 0.000000000000e+00
9.990000000000e+02 0.000000000000e+00 1.150000000000e+01 0.000000000000e+00 0.000000000000e+00 0.000000000000e+00
9.990000000000e+02 0.000000000000e+00 1.250000000000e+01 0.000000000000e+00 0.000000000000e+00 0.000000000000e+00
9.990000000000e+02 0.000000000000e+00 1.350000000000e+01 0.000000000000e+00 0.000000000000e+00 0.000000000000e+00
9.990000000000e+02 0.000000000000e+00 1.450000000000e+01 0.000000000000e+00 0.000000000000e+00 0.000000000000e+00
9.990000000000e+02 0.000000000000e+00 1.550000000000e+01 0.000000000000e+00 0.000000000000e+00 0.000000000000e+00
9.990000000000e+02 0.000000000000e+00 1.650000000000e+01 0.000000000000e+00 0.000000000000e+00 0.000000000000e+00
9.990000000000e+02 0.000000000000e+00 1.750000000000e+01 0.000000000000e+00 0.000000000000e+00 0.000000000000e+00
9.990000000000e+02 0.000000000000e+00 1.850000000000e+01 0.000000000000e+00 0.000000000000e+00 0.000000000000e+00
9.990000000000e+02 0.000000000000e+00 1.950000000000e+01 0.000000000000e+00 0.000000000000e+00 0.000000000000e+00
9.990000000000e+02 0.000000000000e+00 2.050000000000e+01 0.000000000000e+00 0.000000000000e+00 0.000000000000e+00
9.990000000000e+02 0.000000000000e+00 2.150000000000e+01 0.000000000000e+00 0.000000000000e+00 0.000000000000e+00
9.990000000000e+02 0.000000000000e+00 2.250000000000e+01 0.000000000000e+00 0.000000000000e+00 0.000000000000e+00
9.990000000000e+02 0.000000000000e+00 2.350000000000e+01 0.000000000000e+00 0.000000000000e+00 0.000000000000e+00
9.990000000000e+02 0.000000000000e+00 2.450000000000e+01 0.000000000000e+00 0.000000000000e+00 0.000000000000e+00
9.990000000000e+02 0.000000000000e+00 2.550000000000e+01 0.000000000000e+00 0.000000000000e+00 0.000000000000e+00
9.990000000000e+02 0.000000000000e+00 2.650000000000e+01 0.000000000000e+00 0.000000000000e+00 0.000000000000e+00
9.990000000000e+02 0.000000000000e+00 2.750000000000e+01 0.000000000000e+00 0.000000000000e+00 0.000000000000e+00
9.990000000000e+02 0.000000000000e+00 2.850000000000e+01 0.000000000000e+00 0.000000000000e+00 0.000000000000e+00
9.990000000000e+02 0.000000000000e+00 2.950000000000e+01 0.000000000000e+00 0.000000000000e+00 0.000000000000e+00
VARIABLES = "X","Y","Z",VELOCITY1_X,VELOCITY1_Y,VELOCITY1_Z
ZONE T="1.797693134862e+308s", 
9.990000000000e+02 0.000000000000e+00 5.000000000000e-01 2.211346816985e-08 -8.311383308056e-14 0.000000000000e+00
9.990000000000e+02 0.000000000000e+00 1.500000000000e+00 8.862535423635e-08 -4.994073920771e-13 0.000000000000e+00
9.990000000000e+02 0.000000000000e+00 2.500000000000e+00 6.825976958415e-08 -1.089581254162e-12 0.000000000000e+00
9.990000000000e+02 0.000000000000e+00 3.500000000000e+00 5.670398955696e-07 -3.479560265531e-12 0.000000000000e+00
9.990000000000e+02 0.000000000000e+00 4.500000000000e+00 1.114547163864e-08 -5.656711922580e-12 0.000000000000e+00
9.990000000000e+02 0.000000000000e+00 5.500000000000e+00 2.913520761102e-09 -5.710218178289e-12 0.000000000000e+00
9.990000000000e+02 0.000000000000e+00 6.500000000000e+00 1.485507189443e-08 -5.780885396958e-12 0.000000000000e+00
9.990000000000e+02 0.000000000000e+00 7.500000000000e+00 1.699146716548e-08 -5.908737484210e-12 0.000000000000e+00
9.990000000000e+02 0.000000000000e+00 8.500000000000e+00 4.860893764504e-07 -7.941707978930e-12 0.000000000000e+00
9.990000000000e+02 0.000000000000e+00 9.500000000000e+00 2.121012131239e-08 -9.996022231470e-12 0.000000000000e+00
9.990000000000e+02 0.000000000000e+00 1.050000000000e+01 1.111076349479e-08 -1.012838752847e-11 0.000000000000e+00
9.990000000000e+02 0.000000000000e+00 1.150000000000e+01 1.853970546879e-10 -1.017586384873e-11 0.000000000000e+00
9.990000000000e+02 0.000000000000e+00 1.250000000000e+01 4.807432629047e-08 -1.065900412847e-11 0.000000000000e+00
9.990000000000e+02 0.000000000000e+00 1.350000000000e+01 2.533806813966e-08 -1.139768245318e-11 0.000000000000e+00
9.990000000000e+02 0.000000000000e+00 1.450000000000e+01 2.759165688293e-08 -1.193481635216e-11 0.000000000000e+00
9.990000000000e+02 0.000000000000e+00 1.550000000000e+01 1.576382343193e-08 -1.237970590925e-11 0.000000000000e+00
9.990000000000e+02 0.000000000000e+00 1.650000000000e+01 6.495325837211e-08 -1.322634782005e-11 0.000000000000e+00
9.990000000000e+02 0.000000000000e+00 1.750000000000e+01 1.550777154704e-07 -1.555117310898e-11 0.000000000000e+00
9.990000000000e+02 0.000000000000e+00 1.850000000000e+01 8.360494243374e-07 -2.607645242789e-11 0.000000000000e+00
9.990000000000e+02 0.000000000000e+00 1.950000000000e+01 3.490712455251e-09 -3.502040917157e-11 0.000000000000e+00
9.990000000000e+02 0.000000000000e+00 2.050000000000e+01 8.798070735693e-10 -3.511793593983e-11 0.000000000000e+00
9.990000000000e+02 0.000000000000e+00 2.150000000000e+01 1.739775194795e-09 -3.529669837839e-11 0.000000000000e+00
9.990000000000e+02 0.000000000000e+00 2.250000000000e+01 4.583815763850e-09 -3.588127465124e-11 0.000000000000e+00
9.990000000000e+02 0.000000000000e+00 2.350000000000e+01 1.167666389287e-06 -1.582641171952e-10 0.000000000000e+00
9.990000000000e+02 0.000000000000e+00 2.450000000000e+01 5.358923944275e-08 -2.895545906051e-10 0.000000000000e+00
9.990000000000e+02 0.000000000000e+00 2.550000000000e+01 6.757508565296e-08 -3.204843341598e-10 0.000000000000e+00
9.990000000000e+02 0.000000000000e+00 2.650000000000e+01 1.593606405022e-06 -1.026189534081e-09 0.000000000000e+00
9.990000000000e+02 0.000000000000e+00 2.750000000000e+01 3.778479230377e-07 -2.039129025224e-09 0.000000000000e+00
9.990000000000e+02 0.000000000000e+00 2.850000000000e+01 4.096867219477e-09 -2.645670419299e-09 0.000000000000e+00
9.990000000000e+02 0.000000000000e+00 2.950000000000e+01 3.421552871675e-09 -4.279967003981e-09 0.000000000000e+00
