VARIABLES = "X","Y","Z",VELOCITY1_X,VELOCITY1_Y,VELOCITY1_Z
ZONE T="0.000000000000e+00s", 
2.490000000000e+02 0.000000000000e+00 5.000000000000e-01 0.000000000000e+00 0.000000000000e+00 0.000000000000e+00
2.500000000000e+02 0.000000000000e+00 5.000000000000e-01 0.000000000000e+00 0.000000000000e+00 0.000000000000e+00
2.490000000000e+02 0.000000000000e+00 1.500000000000e+00 0.000000000000e+00 0.000000000000e+00 0.000000000000e+00
2.500000000000e+02 0.000000000000e+00 1.500000000000e+00 0.000000000000e+00 0.000000000000e+00 0.000000000000e+00
2.490000000000e+02 0.000000000000e+00 2.500000000000e+00 0.000000000000e+00 0.000000000000e+00 0.000000000000e+00
2.500000000000e+02 0.000000000000e+00 2.500000000000e+00 0.000000000000e+00 0.000000000000e+00 0.000000000000e+00
2.490000000000e+02 0.000000000000e+00 3.500000000000e+00 0.000000000000e+00 0.000000000000e+00 0.000000000000e+00
2.500000000000e+02 0.000000000000e+00 3.500000000000e+00 0.000000000000e+00 0.000000000000e+00 0.000000000000e+00
2.490000000000e+02 0.000000000000e+00 4.500000000000e+00 0.000000000000e+00 0.000000000000e+00 0.000000000000e+00
2.500000000000e+02 0.000000000000e+00 4.500000000000e+00 0.000000000000e+00 0.000000000000e+00 0.000000000000e+00
2.490000000000e+02 0.000000000000e+00 5.500000000000e+00 0.000000000000e+00 0.000000000000e+00 0.000000000000e+00
2.500000000000e+02 0.000000000000e+00 5.500000000000e+00 0.000000000000e+00 0.000000000000e+00 0.000000000000e+00
2.490000000000e+02 0.000000000000e+00 6.500000000000e+00 0.000000000000e+00 0.000000000000e+00 0.000000000000e+00
2.500000000000e+02 0.000000000000e+00 6.500000000000e+00 0.000000000000e+00 0.000000000000e+00 0.000000000000e+00
2.490000000000e+02 0.000000000000e+00 7.500000000000e+00 0.000000000000e+00 0.000000000000e+00 0.000000000000e+00
2.500000000000e+02 0.000000000000e+00 7.500000000000e+00 0.000000000000e+00 0.000000000000e+00 0.000000000000e+00
2.490000000000e+02 0.000000000000e+00 8.500000000000e+00 0.000000000000e+00 0.000000000000e+00 0.000000000000e+00
2.500000000000e+02 0.000000000000e+00 8.500000000000e+00 0.000000000000e+00 0.000000000000e+00 0.000000000000e+00
2.490000000000e+02 0.000000000000e+00 9.500000000000e+00 0.000000000000e+00 0.000000000000e+00 0.000000000000e+00
2.500000000000e+02 0.000000000000e+00 9.500000000000e+00 0.000000000000e+00 0.000000000000e+00 0.000000000000e+00
2.490000000000e+02 0.000000000000e+00 1.050000000000e+01 0.000000000000e+00 0.000000000000e+00 0.000000000000e+00
2.500000000000e+02 0.000000000000e+00 1.050000000000e+01 0.000000000000e+00 0.000000000000e+00 0.000000000000e+00
2.490000000000e+02 0.000000000000e+00 1.150000000000e+01 0.000000000000e+00 0.000000000000e+00 0.000000000000e+00
2.500000000000e+02 0.000000000000e+00 1.150000000000e+01 0.000000000000e+00 0.000000000000e+00 0.000000000000e+00
2.490000000000e+02 0.000000000000e+00 1.250000000000e+01 0.000000000000e+00 0.000000000000e+00 0.000000000000e+00
2.500000000000e+02 0.000000000000e+00 1.250000000000e+01 0.000000000000e+00 0.000000000000e+00 0.000000000000e+00
2.490000000000e+02 0.000000000000e+00 1.350000000000e+01 0.000000000000e+00 0.000000000000e+00 0.000000000000e+00
2.500000000000e+02 0.000000000000e+00 1.350000000000e+01 0.000000000000e+00 0.000000000000e+00 0.000000000000e+00
2.490000000000e+02 0.000000000000e+00 1.450000000000e+01 0.000000000000e+00 0.000000000000e+00 0.000000000000e+00
2.500000000000e+02 0.000000000000e+00 1.450000000000e+01 0.000000000000e+00 0.000000000000e+00 0.000000000000e+00
2.490000000000e+02 0.000000000000e+00 1.550000000000e+01 0.000000000000e+00 0.000000000000e+00 0.000000000000e+00
2.500000000000e+02 0.000000000000e+00 1.550000000000e+01 0.000000000000e+00 0.000000000000e+00 0.000000000000e+00
2.490000000000e+02 0.000000000000e+00 1.650000000000e+01 0.000000000000e+00 0.000000000000e+00 0.000000000000e+00
2.500000000000e+02 0.000000000000e+00 1.650000000000e+01 0.000000000000e+00 0.000000000000e+00 0.000000000000e+00
2.490000000000e+02 0.000000000000e+00 1.750000000000e+01 0.000000000000e+00 0.000000000000e+00 0.000000000000e+00
2.500000000000e+02 0.000000000000e+00 1.750000000000e+01 0.000000000000e+00 0.000000000000e+00 0.000000000000e+00
2.490000000000e+02 0.000000000000e+00 1.850000000000e+01 0.000000000000e+00 0.000000000000e+00 0.000000000000e+00
2.500000000000e+02 0.000000000000e+00 1.850000000000e+01 0.000000000000e+00 0.000000000000e+00 0.000000000000e+00
2.490000000000e+02 0.000000000000e+00 1.950000000000e+01 0.000000000000e+00 0.000000000000e+00 0.000000000000e+00
2.500000000000e+02 0.000000000000e+00 1.950000000000e+01 0.000000000000e+00 0.000000000000e+00 0.000000000000e+00
2.490000000000e+02 0.000000000000e+00 2.050000000000e+01 0.000000000000e+00 0.000000000000e+00 0.000000000000e+00
2.500000000000e+02 0.000000000000e+00 2.050000000000e+01 0.000000000000e+00 0.000000000000e+00 0.000000000000e+00
2.490000000000e+02 0.000000000000e+00 2.150000000000e+01 0.000000000000e+00 0.000000000000e+00 0.000000000000e+00
2.500000000000e+02 0.000000000000e+00 2.150000000000e+01 0.000000000000e+00 0.000000000000e+00 0.000000000000e+00
2.490000000000e+02 0.000000000000e+00 2.250000000000e+01 0.000000000000e+00 0.000000000000e+00 0.000000000000e+00
2.500000000000e+02 0.000000000000e+00 2.250000000000e+01 0.000000000000e+00 0.000000000000e+00 0.000000000000e+00
2.490000000000e+02 0.000000000000e+00 2.350000000000e+01 0.000000000000e+00 0.000000000000e+00 0.000000000000e+00
2.500000000000e+02 0.000000000000e+00 2.350000000000e+01 0.000000000000e+00 0.000000000000e+00 0.000000000000e+00
2.490000000000e+02 0.000000000000e+00 2.450000000000e+01 0.000000000000e+00 0.000000000000e+00 0.000000000000e+00
2.500000000000e+02 0.000000000000e+00 2.450000000000e+01 0.000000000000e+00 0.000000000000e+00 0.000000000000e+00
2.490000000000e+02 0.000000000000e+00 2.550000000000e+01 0.000000000000e+00 0.000000000000e+00 0.000000000000e+00
2.500000000000e+02 0.000000000000e+00 2.550000000000e+01 0.000000000000e+00 0.000000000000e+00 0.000000000000e+00
2.490000000000e+02 0.000000000000e+00 2.650000000000e+01 0.000000000000e+00 0.000000000000e+00 0.000000000000e+00
2.500000000000e+02 0.000000000000e+00 2.650000000000e+01 0.000000000000e+00 0.000000000000e+00 0.000000000000e+00
2.490000000000e+02 0.000000000000e+00 2.750000000000e+01 0.000000000000e+00 0.000000000000e+00 0.000000000000e+00
2.500000000000e+02 0.000000000000e+00 2.750000000000e+01 0.000000000000e+00 0.000000000000e+00 0.000000000000e+00
2.490000000000e+02 0.000000000000e+00 2.850000000000e+01 0.000000000000e+00 0.000000000000e+00 0.000000000000e+00
2.500000000000e+02 0.000000000000e+00 2.850000000000e+01 0.000000000000e+00 0.000000000000e+00 0.000000000000e+00
2.490000000000e+02 0.000000000000e+00 2.950000000000e+01 0.000000000000e+00 0.000000000000e+00 0.000000000000e+00
2.500000000000e+02 0.000000000000e+00 2.950000000000e+01 0.000000000000e+00 0.000000000000e+00 0.000000000000e+00
VARIABLES = "X","Y","Z",VELOCITY1_X,VELOCITY1_Y,VELOCITY1_Z
ZONE T="1.797693134862e+308s", 
2.490000000000e+02 0.000000000000e+00 5.000000000000e-01 6.132072341214e-09 -1.228876628298e-11 0.000000000000e+00
2.500000000000e+02 0.000000000000e+00 5.000000000000e-01 6.156649201453e-09 -1.228883295776e-11 0.000000000000e+00
2.490000000000e+02 0.000000000000e+00 1.500000000000e+00 2.457573103274e-08 -7.382905750967e-11 0.000000000000e+00
2.500000000000e+02 0.000000000000e+00 1.500000000000e+00 2.467422889987e-08 -7.382905529343e-11 0.000000000000e+00
2.490000000000e+02 0.000000000000e+00 2.500000000000e+00 1.892822774952e-08 -1.610147591614e-10 0.000000000000e+00
2.500000000000e+02 0.000000000000e+00 2.500000000000e+00 1.900409110477e-08 -1.610138993481e-10 0.000000000000e+00
2.490000000000e+02 0.000000000000e+00 3.500000000000e+00 1.572358226145e-07 -5.140521082367e-10 0.000000000000e+00
2.500000000000e+02 0.000000000000e+00 3.500000000000e+00 1.578660184867e-07 -5.140505788745e-10 0.000000000000e+00
2.490000000000e+02 0.000000000000e+00 4.500000000000e+00 3.090336065697e-09 -8.353542813357e-10 0.000000000000e+00
2.500000000000e+02 0.000000000000e+00 4.500000000000e+00 3.102722062565e-09 -8.353519026288e-10 0.000000000000e+00
2.490000000000e+02 0.000000000000e+00 5.500000000000e+00 8.072300508680e-10 -8.431649112014e-10 0.000000000000e+00
2.500000000000e+02 0.000000000000e+00 5.500000000000e+00 8.104654140550e-10 -8.431626208143e-10 0.000000000000e+00
2.490000000000e+02 0.000000000000e+00 6.500000000000e+00 4.107553940749e-09 -8.530141211435e-10 0.000000000000e+00
2.500000000000e+02 0.000000000000e+00 6.500000000000e+00 4.124016779739e-09 -8.530117849197e-10 0.000000000000e+00
2.490000000000e+02 0.000000000000e+00 7.500000000000e+00 4.696252995770e-09 -8.706573540089e-10 0.000000000000e+00
2.500000000000e+02 0.000000000000e+00 7.500000000000e+00 4.715075241002e-09 -8.706550185548e-10 0.000000000000e+00
2.490000000000e+02 0.000000000000e+00 8.500000000000e+00 1.343027879715e-07 -1.149209451541e-09 0.000000000000e+00
2.500000000000e+02 0.000000000000e+00 8.500000000000e+00 1.348410616503e-07 -1.149205446141e-09 0.000000000000e+00
2.490000000000e+02 0.000000000000e+00 9.500000000000e+00 5.859748797108e-09 -1.430114008749e-09 0.000000000000e+00
2.500000000000e+02 0.000000000000e+00 9.500000000000e+00 5.883234089803e-09 -1.430110534628e-09 0.000000000000e+00
2.490000000000e+02 0.000000000000e+00 1.050000000000e+01 3.067786407405e-09 -1.448005914799e-09 0.000000000000e+00
2.500000000000e+02 0.000000000000e+00 1.050000000000e+01 3.080081752298e-09 -1.448002321731e-09 0.000000000000e+00
2.490000000000e+02 0.000000000000e+00 1.150000000000e+01 5.078716706195e-11 -1.454255771770e-09 0.000000000000e+00
2.500000000000e+02 0.000000000000e+00 1.150000000000e+01 5.099072093386e-11 -1.454252119597e-09 0.000000000000e+00
2.490000000000e+02 0.000000000000e+00 1.250000000000e+01 1.248457975858e-08 -1.479381019570e-09 0.000000000000e+00
2.500000000000e+02 0.000000000000e+00 1.250000000000e+01 1.253462571553e-08 -1.479377288123e-09 0.000000000000e+00
2.490000000000e+02 0.000000000000e+00 1.350000000000e+01 6.578293888680e-09 -1.517589559445e-09 0.000000000000e+00
2.500000000000e+02 0.000000000000e+00 1.350000000000e+01 6.604663892007e-09 -1.517585328606e-09 0.000000000000e+00
2.490000000000e+02 0.000000000000e+00 1.450000000000e+01 7.159763146452e-09 -1.545124588374e-09 0.000000000000e+00
2.500000000000e+02 0.000000000000e+00 1.450000000000e+01 7.188464007774e-09 -1.545120440846e-09 0.000000000000e+00
2.490000000000e+02 0.000000000000e+00 1.550000000000e+01 4.088382982153e-09 -1.567669338051e-09 0.000000000000e+00
2.500000000000e+02 0.000000000000e+00 1.550000000000e+01 4.104771674241e-09 -1.567665378056e-09 0.000000000000e+00
2.490000000000e+02 0.000000000000e+00 1.650000000000e+01 1.683213396433e-08 -1.609600210879e-09 0.000000000000e+00
2.500000000000e+02 0.000000000000e+00 1.650000000000e+01 1.689960617410e-08 -1.609596379957e-09 0.000000000000e+00
2.490000000000e+02 0.000000000000e+00 1.750000000000e+01 4.017850440128e-08 -1.723867655277e-09 0.000000000000e+00
2.500000000000e+02 0.000000000000e+00 1.750000000000e+01 4.033956057242e-08 -1.723864157528e-09 0.000000000000e+00
2.490000000000e+02 0.000000000000e+00 1.850000000000e+01 2.165863535004e-07 -2.238501185199e-09 0.000000000000e+00
2.500000000000e+02 0.000000000000e+00 1.850000000000e+01 2.174545404462e-07 -2.238499313094e-09 0.000000000000e+00
2.490000000000e+02 0.000000000000e+00 1.950000000000e+01 9.031213127418e-10 -2.674441604752e-09 0.000000000000e+00
2.500000000000e+02 0.000000000000e+00 1.950000000000e+01 9.067414738084e-10 -2.674438100876e-09 0.000000000000e+00
2.490000000000e+02 0.000000000000e+00 2.050000000000e+01 2.242223789873e-10 -2.676701274022e-09 0.000000000000e+00
2.500000000000e+02 0.000000000000e+00 2.050000000000e+01 2.251211821825e-10 -2.676697740384e-09 0.000000000000e+00
2.490000000000e+02 0.000000000000e+00 2.150000000000e+01 4.252775653129e-10 -2.678003117985e-09 0.000000000000e+00
2.500000000000e+02 0.000000000000e+00 2.150000000000e+01 4.269823588908e-10 -2.677999589085e-09 0.000000000000e+00
2.490000000000e+02 0.000000000000e+00 2.250000000000e+01 1.097122222671e-09 -2.681054667461e-09 0.000000000000e+00
2.500000000000e+02 0.000000000000e+00 2.250000000000e+01 1.101520272667e-09 -2.681051149242e-09 0.000000000000e+00
2.490000000000e+02 0.000000000000e+00 2.350000000000e+01 2.773026718918e-07 -3.239080587295e-09 0.000000000000e+00
2.500000000000e+02 0.000000000000e+00 2.350000000000e+01 2.784143011007e-07 -3.239080773042e-09 0.000000000000e+00
2.490000000000e+02 0.000000000000e+00 2.450000000000e+01 1.271615647534e-08 -3.820433371857e-09 0.000000000000e+00
2.500000000000e+02 0.000000000000e+00 2.450000000000e+01 1.276713170403e-08 -3.820430151675e-09 0.000000000000e+00
2.490000000000e+02 0.000000000000e+00 2.550000000000e+01 1.593907148026e-08 -3.877870883320e-09 0.000000000000e+00
2.500000000000e+02 0.000000000000e+00 2.550000000000e+01 1.600296590027e-08 -3.877866750893e-09 0.000000000000e+00
2.490000000000e+02 0.000000000000e+00 2.650000000000e+01 3.740823635439e-07 -4.659649165175e-09 0.000000000000e+00
2.500000000000e+02 0.000000000000e+00 2.650000000000e+01 3.755818972558e-07 -4.659608013451e-09 0.000000000000e+00
2.490000000000e+02 0.000000000000e+00 2.750000000000e+01 8.857800427616e-08 -5.587053654672e-09 0.000000000000e+00
2.500000000000e+02 0.000000000000e+00 2.750000000000e+01 8.893306597974e-08 -5.587043358214e-09 0.000000000000e+00
2.490000000000e+02 0.000000000000e+00 2.850000000000e+01 8.769086067126e-10 -5.766352149733e-09 0.000000000000e+00
2.500000000000e+02 0.000000000000e+00 2.850000000000e+01 8.804237096382e-10 -5.766352243014e-09 0.000000000000e+00
2.490000000000e+02 0.000000000000e+00 2.950000000000e+01 3.742919540726e-10 -5.768860070004e-09 0.000000000000e+00
2.500000000000e+02 0.000000000000e+00 2.950000000000e+01 3.757923780481e-10 -5.768860085316e-09 0.000000000000e+00
