 TITLE = "Profiles along polylines"
 VARIABLES = "DIST" "HEAD" "VELOCITY_X1" "VELOCITY_Y1" "VELOCITY_Z1" 
 ZONE T="TIME=0.000000000000e+00"
0.000000000000e+00 3.000000000000e+01 0.000000000000e+00 0.000000000000e+00 0.000000000000e+00 
1.000000000000e+00 3.000000000000e+01 0.000000000000e+00 0.000000000000e+00 0.000000000000e+00 
2.000000000000e+00 3.000000000000e+01 0.000000000000e+00 0.000000000000e+00 0.000000000000e+00 
3.000000000000e+00 3.000000000000e+01 0.000000000000e+00 0.000000000000e+00 0.000000000000e+00 
4.000000000000e+00 3.000000000000e+01 0.000000000000e+00 0.000000000000e+00 0.000000000000e+00 
5.000000000000e+00 3.000000000000e+01 0.000000000000e+00 0.000000000000e+00 0.000000000000e+00 
6.000000000000e+00 3.000000000000e+01 0.000000000000e+00 0.000000000000e+00 0.000000000000e+00 
7.000000000000e+00 3.000000000000e+01 0.000000000000e+00 0.000000000000e+00 0.000000000000e+00 
8.000000000000e+00 3.000000000000e+01 0.000000000000e+00 0.000000000000e+00 0.000000000000e+00 
9.000000000000e+00 3.000000000000e+01 0.000000000000e+00 0.000000000000e+00 0.000000000000e+00 
1.000000000000e+01 3.000000000000e+01 0.000000000000e+00 0.000000000000e+00 0.000000000000e+00 
1.100000000000e+01 3.000000000000e+01 0.000000000000e+00 0.000000000000e+00 0.000000000000e+00 
1.200000000000e+01 3.000000000000e+01 0.000000000000e+00 0.000000000000e+00 0.000000000000e+00 
1.300000000000e+01 3.000000000000e+01 0.000000000000e+00 0.000000000000e+00 0.000000000000e+00 
1.400000000000e+01 3.000000000000e+01 0.000000000000e+00 0.000000000000e+00 0.000000000000e+00 
1.500000000000e+01 3.000000000000e+01 0.000000000000e+00 0.000000000000e+00 0.000000000000e+00 
1.600000000000e+01 3.000000000000e+01 0.000000000000e+00 0.000000000000e+00 0.000000000000e+00 
1.700000000000e+01 3.000000000000e+01 0.000000000000e+00 0.000000000000e+00 0.000000000000e+00 
1.800000000000e+01 3.000000000000e+01 0.000000000000e+00 0.000000000000e+00 0.000000000000e+00 
1.900000000000e+01 3.000000000000e+01 0.000000000000e+00 0.000000000000e+00 0.000000000000e+00 
2.000000000000e+01 3.000000000000e+01 0.000000000000e+00 0.000000000000e+00 0.000000000000e+00 
2.100000000000e+01 3.000000000000e+01 0.000000000000e+00 0.000000000000e+00 0.000000000000e+00 
2.200000000000e+01 3.000000000000e+01 0.000000000000e+00 0.000000000000e+00 0.000000000000e+00 
2.300000000000e+01 3.000000000000e+01 0.000000000000e+00 0.000000000000e+00 0.000000000000e+00 
2.400000000000e+01 3.000000000000e+01 0.000000000000e+00 0.000000000000e+00 0.000000000000e+00 
2.500000000000e+01 3.000000000000e+01 0.000000000000e+00 0.000000000000e+00 0.000000000000e+00 
2.600000000000e+01 3.000000000000e+01 0.000000000000e+00 0.000000000000e+00 0.000000000000e+00 
2.700000000000e+01 3.000000000000e+01 0.000000000000e+00 0.000000000000e+00 0.000000000000e+00 
2.800000000000e+01 3.000000000000e+01 0.000000000000e+00 0.000000000000e+00 0.000000000000e+00 
2.900000000000e+01 3.000000000000e+01 0.000000000000e+00 0.000000000000e+00 0.000000000000e+00 
3.000000000000e+01 3.000000000000e+01 0.000000000000e+00 0.000000000000e+00 0.000000000000e+00 
 TITLE = "Profiles along polylines"
 VARIABLES = "DIST" "HEAD" "VELOCITY_X1" "VELOCITY_Y1" "VELOCITY_Z1" 
 ZONE T="TIME=1.797693134862e+308"
0.000000000000e+00 3.040438383488e+01 1.228255615456e-08 -1.224294509864e-11 0.000000000000e+00 
1.000000000000e+00 3.040438438547e+01 3.075390486328e-08 -4.289668894573e-11 0.000000000000e+00 
2.000000000000e+00 3.040438521079e+01 4.356927380699e-08 -1.169757226250e-10 0.000000000000e+00 
3.000000000000e+00 3.040438754772e+01 1.764285616231e-07 -3.362580531720e-10 0.000000000000e+00 
4.000000000000e+00 3.040438844590e+01 1.605668995110e-07 -6.721420964664e-10 0.000000000000e+00 
5.000000000000e+00 3.040446270578e+01 3.903441885971e-09 -8.360597122456e-10 0.000000000000e+00 
6.000000000000e+00 3.040474965502e+01 4.922298321885e-09 -8.448574901977e-10 0.000000000000e+00 
7.000000000000e+00 3.040480670628e+01 8.817303438154e-09 -8.585544077588e-10 0.000000000000e+00 
8.000000000000e+00 3.040485763821e+01 1.392126330680e-07 -1.006136019941e-09 0.000000000000e+00 
9.000000000000e+00 3.040485998916e+01 1.403779411710e-07 -1.284858408875e-09 0.000000000000e+00 
1.000000000000e+01 3.040492704274e+01 8.941301950519e-09 -1.433702448928e-09 0.000000000000e+00 
1.100000000000e+01 3.040505672372e+01 3.123414250693e-09 -1.445729968817e-09 0.000000000000e+00 
1.200000000000e+01 3.041292396140e+01 1.256207317629e-08 -1.461407831878e-09 0.000000000000e+00 
1.300000000000e+01 3.041295652238e+01 1.910352995730e-08 -1.493075775910e-09 0.000000000000e+00 
1.400000000000e+01 3.041301991996e+01 1.376741805687e-08 -1.525948866112e-09 0.000000000000e+00 
1.500000000000e+01 3.041307922959e+01 1.127223138215e-08 -1.550991568367e-09 0.000000000000e+00 
1.600000000000e+01 3.041318461639e+01 2.096545831404e-08 -1.583235587669e-09 0.000000000000e+00 
1.700000000000e+01 3.041321090117e+01 5.713320133497e-08 -1.661350758513e-09 0.000000000000e+00 
1.800000000000e+01 3.041322269726e+01 2.573170353101e-07 -1.975873649517e-09 0.000000000000e+00 
1.900000000000e+01 3.041322554100e+01 2.179572203798e-07 -2.451226882954e-09 0.000000000000e+00 
2.000000000000e+01 3.041404065638e+01 1.129806612723e-09 -2.670332239734e-09 0.000000000000e+00 
2.100000000000e+01 3.041732656965e+01 6.510027435526e-10 -2.672114117110e-09 0.000000000000e+00 
2.200000000000e+01 3.041905989822e+01 1.526020707294e-09 -2.674294025317e-09 0.000000000000e+00 
2.300000000000e+01 3.041973256201e+01 2.790686792356e-07 -2.955338585142e-09 0.000000000000e+00 
2.400000000000e+01 3.041973577935e+01 2.907156477075e-07 -3.525988762051e-09 0.000000000000e+00 
2.500000000000e+01 3.041981856924e+01 2.872411776864e-08 -3.845890682987e-09 0.000000000000e+00 
2.600000000000e+01 3.041988561443e+01 3.909594355506e-07 -4.266250704594e-09 0.000000000000e+00 
2.700000000000e+01 3.041988904854e+01 4.637730453725e-07 -5.122291037647e-09 0.000000000000e+00 
2.800000000000e+01 3.041990644376e+01 8.967003667535e-08 -5.676542885352e-09 0.000000000000e+00 
2.900000000000e+01 3.042172005315e+01 1.254209518245e-09 -5.767602532430e-09 0.000000000000e+00 
3.000000000000e+01 3.042597091244e+01 7.503842356223e-10 -5.768858754490e-09 0.000000000000e+00 
