VARIABLES = "X","Y","Z",VELOCITY1_X,VELOCITY1_Y,VELOCITY1_Z
ZONE T="0.000000000000e+00s", 
7.490000000000e+02 0.000000000000e+00 5.000000000000e-01 0.000000000000e+00 0.000000000000e+00 0.000000000000e+00
7.500000000000e+02 0.000000000000e+00 5.000000000000e-01 0.000000000000e+00 0.000000000000e+00 0.000000000000e+00
7.490000000000e+02 0.000000000000e+00 1.500000000000e+00 0.000000000000e+00 0.000000000000e+00 0.000000000000e+00
7.500000000000e+02 0.000000000000e+00 1.500000000000e+00 0.000000000000e+00 0.000000000000e+00 0.000000000000e+00
7.490000000000e+02 0.000000000000e+00 2.500000000000e+00 0.000000000000e+00 0.000000000000e+00 0.000000000000e+00
7.500000000000e+02 0.000000000000e+00 2.500000000000e+00 0.000000000000e+00 0.000000000000e+00 0.000000000000e+00
7.490000000000e+02 0.000000000000e+00 3.500000000000e+00 0.000000000000e+00 0.000000000000e+00 0.000000000000e+00
7.500000000000e+02 0.000000000000e+00 3.500000000000e+00 0.000000000000e+00 0.000000000000e+00 0.000000000000e+00
7.490000000000e+02 0.000000000000e+00 4.500000000000e+00 0.000000000000e+00 0.000000000000e+00 0.000000000000e+00
7.500000000000e+02 0.000000000000e+00 4.500000000000e+00 0.000000000000e+00 0.000000000000e+00 0.000000000000e+00
7.490000000000e+02 0.000000000000e+00 5.500000000000e+00 0.000000000000e+00 0.000000000000e+00 0.000000000000e+00
7.500000000000e+02 0.000000000000e+00 5.500000000000e+00 0.000000000000e+00 0.000000000000e+00 0.000000000000e+00
7.490000000000e+02 0.000000000000e+00 6.500000000000e+00 0.000000000000e+00 0.000000000000e+00 0.000000000000e+00
7.500000000000e+02 0.000000000000e+00 6.500000000000e+00 0.000000000000e+00 0.000000000000e+00 0.000000000000e+00
7.490000000000e+02 0.000000000000e+00 7.500000000000e+00 0.000000000000e+00 0.000000000000e+00 0.000000000000e+00
7.500000000000e+02 0.000000000000e+00 7.500000000000e+00 0.000000000000e+00 0.000000000000e+00 0.000000000000e+00
7.490000000000e+02 0.000000000000e+00 8.500000000000e+00 0.000000000000e+00 0.000000000000e+00 0.000000000000e+00
7.500000000000e+02 0.000000000000e+00 8.500000000000e+00 0.000000000000e+00 0.000000000000e+00 0.000000000000e+00
7.490000000000e+02 0.000000000000e+00 9.500000000000e+00 0.000000000000e+00 0.000000000000e+00 0.000000000000e+00
7.500000000000e+02 0.000000000000e+00 9.500000000000e+00 0.000000000000e+00 0.000000000000e+00 0.000000000000e+00
7.490000000000e+02 0.000000000000e+00 1.050000000000e+01 0.000000000000e+00 0.000000000000e+00 0.000000000000e+00
7.500000000000e+02 0.000000000000e+00 1.050000000000e+01 0.000000000000e+00 0.000000000000e+00 0.000000000000e+00
7.490000000000e+02 0.000000000000e+00 1.150000000000e+01 0.000000000000e+00 0.000000000000e+00 0.000000000000e+00
7.500000000000e+02 0.000000000000e+00 1.150000000000e+01 0.000000000000e+00 0.000000000000e+00 0.000000000000e+00
7.490000000000e+02 0.000000000000e+00 1.250000000000e+01 0.000000000000e+00 0.000000000000e+00 0.000000000000e+00
7.500000000000e+02 0.000000000000e+00 1.250000000000e+01 0.000000000000e+00 0.000000000000e+00 0.000000000000e+00
7.490000000000e+02 0.000000000000e+00 1.350000000000e+01 0.000000000000e+00 0.000000000000e+00 0.000000000000e+00
7.500000000000e+02 0.000000000000e+00 1.350000000000e+01 0.000000000000e+00 0.000000000000e+00 0.000000000000e+00
7.490000000000e+02 0.000000000000e+00 1.450000000000e+01 0.000000000000e+00 0.000000000000e+00 0.000000000000e+00
7.500000000000e+02 0.000000000000e+00 1.450000000000e+01 0.000000000000e+00 0.000000000000e+00 0.000000000000e+00
7.490000000000e+02 0.000000000000e+00 1.550000000000e+01 0.000000000000e+00 0.000000000000e+00 0.000000000000e+00
7.500000000000e+02 0.000000000000e+00 1.550000000000e+01 0.000000000000e+00 0.000000000000e+00 0.000000000000e+00
7.490000000000e+02 0.000000000000e+00 1.650000000000e+01 0.000000000000e+00 0.000000000000e+00 0.000000000000e+00
7.500000000000e+02 0.000000000000e+00 1.650000000000e+01 0.000000000000e+00 0.000000000000e+00 0.000000000000e+00
7.490000000000e+02 0.000000000000e+00 1.750000000000e+01 0.000000000000e+00 0.000000000000e+00 0.000000000000e+00
7.500000000000e+02 0.000000000000e+00 1.750000000000e+01 0.000000000000e+00 0.000000000000e+00 0.000000000000e+00
7.490000000000e+02 0.000000000000e+00 1.850000000000e+01 0.000000000000e+00 0.000000000000e+00 0.000000000000e+00
7.500000000000e+02 0.000000000000e+00 1.850000000000e+01 0.000000000000e+00 0.000000000000e+00 0.000000000000e+00
7.490000000000e+02 0.000000000000e+00 1.950000000000e+01 0.000000000000e+00 0.000000000000e+00 0.000000000000e+00
7.500000000000e+02 0.000000000000e+00 1.950000000000e+01 0.000000000000e+00 0.000000000000e+00 0.000000000000e+00
7.490000000000e+02 0.000000000000e+00 2.050000000000e+01 0.000000000000e+00 0.000000000000e+00 0.000000000000e+00
7.500000000000e+02 0.000000000000e+00 2.050000000000e+01 0.000000000000e+00 0.000000000000e+00 0.000000000000e+00
7.490000000000e+02 0.000000000000e+00 2.150000000000e+01 0.000000000000e+00 0.000000000000e+00 0.000000000000e+00
7.500000000000e+02 0.000000000000e+00 2.150000000000e+01 0.000000000000e+00 0.000000000000e+00 0.000000000000e+00
7.490000000000e+02 0.000000000000e+00 2.250000000000e+01 0.000000000000e+00 0.000000000000e+00 0.000000000000e+00
7.500000000000e+02 0.000000000000e+00 2.250000000000e+01 0.000000000000e+00 0.000000000000e+00 0.000000000000e+00
7.490000000000e+02 0.000000000000e+00 2.350000000000e+01 0.000000000000e+00 0.000000000000e+00 0.000000000000e+00
7.500000000000e+02 0.000000000000e+00 2.350000000000e+01 0.000000000000e+00 0.000000000000e+00 0.000000000000e+00
7.490000000000e+02 0.000000000000e+00 2.450000000000e+01 0.000000000000e+00 0.000000000000e+00 0.000000000000e+00
7.500000000000e+02 0.000000000000e+00 2.450000000000e+01 0.000000000000e+00 0.000000000000e+00 0.000000000000e+00
7.490000000000e+02 0.000000000000e+00 2.550000000000e+01 0.000000000000e+00 0.000000000000e+00 0.000000000000e+00
7.500000000000e+02 0.000000000000e+00 2.550000000000e+01 0.000000000000e+00 0.000000000000e+00 0.000000000000e+00
7.490000000000e+02 0.000000000000e+00 2.650000000000e+01 0.000000000000e+00 0.000000000000e+00 0.000000000000e+00
7.500000000000e+02 0.000000000000e+00 2.650000000000e+01 0.000000000000e+00 0.000000000000e+00 0.000000000000e+00
7.490000000000e+02 0.000000000000e+00 2.750000000000e+01 0.000000000000e+00 0.000000000000e+00 0.000000000000e+00
7.500000000000e+02 0.000000000000e+00 2.750000000000e+01 0.000000000000e+00 0.000000000000e+00 0.000000000000e+00
7.490000000000e+02 0.000000000000e+00 2.850000000000e+01 0.000000000000e+00 0.000000000000e+00 0.000000000000e+00
7.500000000000e+02 0.000000000000e+00 2.850000000000e+01 0.000000000000e+00 0.000000000000e+00 0.000000000000e+00
7.490000000000e+02 0.000000000000e+00 2.950000000000e+01 0.000000000000e+00 0.000000000000e+00 0.000000000000e+00
7.500000000000e+02 0.000000000000e+00 2.950000000000e+01 0.000000000000e+00 0.000000000000e+00 0.000000000000e+00
VARIABLES = "X","Y","Z",VELOCITY1_X,VELOCITY1_Y,VELOCITY1_Z
ZONE T="1.797693134862e+308s", 
7.490000000000e+02 0.000000000000e+00 5.000000000000e-01 1.827261965333e-08 -1.141897964415e-11 0.000000000000e+00
7.500000000000e+02 0.000000000000e+00 5.000000000000e-01 1.829544004204e-08 -1.140892257434e-11 0.000000000000e+00
7.490000000000e+02 0.000000000000e+00 1.500000000000e+00 7.323189069064e-08 -6.860210794645e-11 0.000000000000e+00
7.500000000000e+02 0.000000000000e+00 1.500000000000e+00 7.332334920627e-08 -6.854190795650e-11 0.000000000000e+00
7.490000000000e+02 0.000000000000e+00 2.500000000000e+00 5.640325696964e-08 -1.496147453514e-10 0.000000000000e+00
7.500000000000e+02 0.000000000000e+00 2.500000000000e+00 5.647369884638e-08 -1.494839354579e-10 0.000000000000e+00
7.490000000000e+02 0.000000000000e+00 3.500000000000e+00 4.685399710379e-07 -4.776760606799e-10 0.000000000000e+00
7.500000000000e+02 0.000000000000e+00 3.500000000000e+00 4.691251383042e-07 -4.772566731088e-10 0.000000000000e+00
7.490000000000e+02 0.000000000000e+00 4.500000000000e+00 9.208836942051e-09 -7.762462978920e-10 0.000000000000e+00
7.500000000000e+02 0.000000000000e+00 4.500000000000e+00 9.220338855001e-09 -7.755643700537e-10 0.000000000000e+00
7.490000000000e+02 0.000000000000e+00 5.500000000000e+00 2.405683239197e-09 -7.835094952013e-10 0.000000000000e+00
7.500000000000e+02 0.000000000000e+00 5.500000000000e+00 2.408690354215e-09 -7.828212246086e-10 0.000000000000e+00
7.490000000000e+02 0.000000000000e+00 6.500000000000e+00 1.224436156956e-08 -7.926918919978e-10 0.000000000000e+00
7.500000000000e+02 0.000000000000e+00 6.500000000000e+00 1.225969956275e-08 -7.919958725642e-10 0.000000000000e+00
7.490000000000e+02 0.000000000000e+00 7.500000000000e+00 1.400001385853e-08 -8.091483578762e-10 0.000000000000e+00
7.500000000000e+02 0.000000000000e+00 7.500000000000e+00 1.401755909348e-08 -8.084385732351e-10 0.000000000000e+00
7.490000000000e+02 0.000000000000e+00 8.500000000000e+00 4.003883561757e-07 -1.069093890563e-09 0.000000000000e+00
7.500000000000e+02 0.000000000000e+00 8.500000000000e+00 4.008903188304e-07 -1.068167546240e-09 0.000000000000e+00
7.490000000000e+02 0.000000000000e+00 9.500000000000e+00 1.746945896202e-08 -1.331212752408e-09 0.000000000000e+00
7.500000000000e+02 0.000000000000e+00 9.500000000000e+00 1.749136188650e-08 -1.330070607441e-09 0.000000000000e+00
7.490000000000e+02 0.000000000000e+00 1.050000000000e+01 9.146535550646e-09 -1.347918298445e-09 0.000000000000e+00
7.500000000000e+02 0.000000000000e+00 1.050000000000e+01 9.158009977050e-09 -1.346762576160e-09 0.000000000000e+00
7.490000000000e+02 0.000000000000e+00 1.150000000000e+01 1.515669739924e-10 -1.353760563418e-09 0.000000000000e+00
7.500000000000e+02 0.000000000000e+00 1.150000000000e+01 1.517586135928e-10 -1.352600123581e-09 0.000000000000e+00
7.490000000000e+02 0.000000000000e+00 1.250000000000e+01 3.750895420408e-08 -1.378856787717e-09 0.000000000000e+00
7.500000000000e+02 0.000000000000e+00 1.250000000000e+01 3.755894390134e-08 -1.377695264698e-09 0.000000000000e+00
7.490000000000e+02 0.000000000000e+00 1.350000000000e+01 1.976464171992e-08 -1.417030828633e-09 0.000000000000e+00
7.500000000000e+02 0.000000000000e+00 1.350000000000e+01 1.979098957675e-08 -1.415868409235e-09 0.000000000000e+00
7.490000000000e+02 0.000000000000e+00 1.450000000000e+01 2.151291842031e-08 -1.444556156656e-09 0.000000000000e+00
7.500000000000e+02 0.000000000000e+00 1.450000000000e+01 2.154160945859e-08 -1.443393016769e-09 0.000000000000e+00
7.490000000000e+02 0.000000000000e+00 1.550000000000e+01 1.228506368439e-08 -1.467103021833e-09 0.000000000000e+00
7.500000000000e+02 0.000000000000e+00 1.550000000000e+01 1.230145516944e-08 -1.465939306147e-09 0.000000000000e+00
7.490000000000e+02 0.000000000000e+00 1.650000000000e+01 5.058272370302e-08 -1.509071785517e-09 0.000000000000e+00
7.500000000000e+02 0.000000000000e+00 1.650000000000e+01 5.065025896941e-08 -1.507907255087e-09 0.000000000000e+00
7.490000000000e+02 0.000000000000e+00 1.750000000000e+01 1.207441330947e-07 -1.623462458899e-09 0.000000000000e+00
7.500000000000e+02 0.000000000000e+00 1.750000000000e+01 1.209053704244e-07 -1.622296254035e-09 0.000000000000e+00
7.490000000000e+02 0.000000000000e+00 1.850000000000e+01 6.508892986231e-07 -2.138699474070e-09 0.000000000000e+00
7.500000000000e+02 0.000000000000e+00 1.850000000000e+01 6.517585296510e-07 -2.137525650054e-09 0.000000000000e+00
7.490000000000e+02 0.000000000000e+00 1.950000000000e+01 2.714212297623e-09 -2.575129920338e-09 0.000000000000e+00
7.500000000000e+02 0.000000000000e+00 1.950000000000e+01 2.717838452787e-09 -2.573953854181e-09 0.000000000000e+00
7.490000000000e+02 0.000000000000e+00 2.050000000000e+01 6.742584329822e-10 -2.577400926973e-09 0.000000000000e+00
7.500000000000e+02 0.000000000000e+00 2.050000000000e+01 6.751634240277e-10 -2.576224950340e-09 0.000000000000e+00
7.490000000000e+02 0.000000000000e+00 2.150000000000e+01 1.280940498152e-09 -2.578729568744e-09 0.000000000000e+00
7.500000000000e+02 0.000000000000e+00 2.150000000000e+01 1.282682380042e-09 -2.577553892960e-09 0.000000000000e+00
7.490000000000e+02 0.000000000000e+00 2.250000000000e+01 3.307337870430e-09 -2.581868846785e-09 0.000000000000e+00
7.500000000000e+02 0.000000000000e+00 2.250000000000e+01 3.311865504553e-09 -2.580694205205e-09 0.000000000000e+00
7.490000000000e+02 0.000000000000e+00 2.350000000000e+01 8.362056193187e-07 -3.157718494109e-09 0.000000000000e+00
7.500000000000e+02 0.000000000000e+00 2.350000000000e+01 8.373531677964e-07 -3.156755005746e-09 0.000000000000e+00
7.490000000000e+02 0.000000000000e+00 2.450000000000e+01 3.834566445325e-08 -3.757607237764e-09 0.000000000000e+00
7.500000000000e+02 0.000000000000e+00 2.450000000000e+01 3.839828847229e-08 -3.756864756863e-09 0.000000000000e+00
7.490000000000e+02 0.000000000000e+00 2.550000000000e+01 4.806528208774e-08 -3.816890048576e-09 0.000000000000e+00
7.500000000000e+02 0.000000000000e+00 2.550000000000e+01 4.813125424945e-08 -3.816169141928e-09 0.000000000000e+00
7.490000000000e+02 0.000000000000e+00 2.650000000000e+01 1.128083872007e-06 -4.623866902583e-09 0.000000000000e+00
7.500000000000e+02 0.000000000000e+00 2.650000000000e+01 1.129632385803e-06 -4.623454007192e-09 0.000000000000e+00
7.490000000000e+02 0.000000000000e+00 2.750000000000e+01 2.671161504224e-07 -5.581154566918e-09 0.000000000000e+00
7.500000000000e+02 0.000000000000e+00 2.750000000000e+01 2.674828206230e-07 -5.581091132566e-09 0.000000000000e+00
7.490000000000e+02 0.000000000000e+00 2.850000000000e+01 2.644409239328e-09 -5.766247038983e-09 0.000000000000e+00
7.500000000000e+02 0.000000000000e+00 2.850000000000e+01 2.648039232832e-09 -5.766245802002e-09 0.000000000000e+00
7.490000000000e+02 0.000000000000e+00 2.950000000000e+01 1.128717007226e-09 -5.768835875222e-09 0.000000000000e+00
7.500000000000e+02 0.000000000000e+00 2.950000000000e+01 1.130266408448e-09 -5.768835590432e-09 0.000000000000e+00
