 TITLE = "Profiles along polylines"
 VARIABLES = "DIST" "HEAD" "VELOCITY_X1" "VELOCITY_Y1" "VELOCITY_Z1" 
 ZONE T="TIME=0.000000000000e+00"
0.000000000000e+00 3.000000000000e+01 0.000000000000e+00 0.000000000000e+00 0.000000000000e+00 
1.000000000000e+00 3.000000000000e+01 0.000000000000e+00 0.000000000000e+00 0.000000000000e+00 
2.000000000000e+00 3.000000000000e+01 0.000000000000e+00 0.000000000000e+00 0.000000000000e+00 
3.000000000000e+00 3.000000000000e+01 0.000000000000e+00 0.000000000000e+00 0.000000000000e+00 
4.000000000000e+00 3.000000000000e+01 0.000000000000e+00 0.000000000000e+00 0.000000000000e+00 
5.000000000000e+00 3.000000000000e+01 0.000000000000e+00 0.000000000000e+00 0.000000000000e+00 
6.000000000000e+00 3.000000000000e+01 0.000000000000e+00 0.000000000000e+00 0.000000000000e+00 
7.000000000000e+00 3.000000000000e+01 0.000000000000e+00 0.000000000000e+00 0.000000000000e+00 
8.000000000000e+00 3.000000000000e+01 0.000000000000e+00 0.000000000000e+00 0.000000000000e+00 
9.000000000000e+00 3.000000000000e+01 0.000000000000e+00 0.000000000000e+00 0.000000000000e+00 
1.000000000000e+01 3.000000000000e+01 0.000000000000e+00 0.000000000000e+00 0.000000000000e+00 
1.100000000000e+01 3.000000000000e+01 0.000000000000e+00 0.000000000000e+00 0.000000000000e+00 
1.200000000000e+01 3.000000000000e+01 0.000000000000e+00 0.000000000000e+00 0.000000000000e+00 
1.300000000000e+01 3.000000000000e+01 0.000000000000e+00 0.000000000000e+00 0.000000000000e+00 
1.400000000000e+01 3.000000000000e+01 0.000000000000e+00 0.000000000000e+00 0.000000000000e+00 
1.500000000000e+01 3.000000000000e+01 0.000000000000e+00 0.000000000000e+00 0.000000000000e+00 
1.600000000000e+01 3.000000000000e+01 0.000000000000e+00 0.000000000000e+00 0.000000000000e+00 
1.700000000000e+01 3.000000000000e+01 0.000000000000e+00 0.000000000000e+00 0.000000000000e+00 
1.800000000000e+01 3.000000000000e+01 0.000000000000e+00 0.000000000000e+00 0.000000000000e+00 
1.900000000000e+01 3.000000000000e+01 0.000000000000e+00 0.000000000000e+00 0.000000000000e+00 
2.000000000000e+01 3.000000000000e+01 0.000000000000e+00 0.000000000000e+00 0.000000000000e+00 
2.100000000000e+01 3.000000000000e+01 0.000000000000e+00 0.000000000000e+00 0.000000000000e+00 
2.200000000000e+01 3.000000000000e+01 0.000000000000e+00 0.000000000000e+00 0.000000000000e+00 
2.300000000000e+01 3.000000000000e+01 0.000000000000e+00 0.000000000000e+00 0.000000000000e+00 
2.400000000000e+01 3.000000000000e+01 0.000000000000e+00 0.000000000000e+00 0.000000000000e+00 
2.500000000000e+01 3.000000000000e+01 0.000000000000e+00 0.000000000000e+00 0.000000000000e+00 
2.600000000000e+01 3.000000000000e+01 0.000000000000e+00 0.000000000000e+00 0.000000000000e+00 
2.700000000000e+01 3.000000000000e+01 0.000000000000e+00 0.000000000000e+00 0.000000000000e+00 
2.800000000000e+01 3.000000000000e+01 0.000000000000e+00 0.000000000000e+00 0.000000000000e+00 
2.900000000000e+01 3.000000000000e+01 0.000000000000e+00 0.000000000000e+00 0.000000000000e+00 
3.000000000000e+01 3.000000000000e+01 0.000000000000e+00 0.000000000000e+00 0.000000000000e+00 
 TITLE = "Profiles along polylines"
 VARIABLES = "DIST" "HEAD" "VELOCITY_X1" "VELOCITY_Y1" "VELOCITY_Z1" 
 ZONE T="TIME=1.797693134862e+308"
0.000000000000e+00 3.000000000000e+01 2.211345761300e-08 -3.860542353799e-21 0.000000000000e+00 
1.000000000000e+00 3.000000000000e+01 5.536942104350e-08 -6.424143988678e-20 0.000000000000e+00 
2.000000000000e+00 3.000000000000e+01 7.844274241651e-08 -3.865778090996e-20 0.000000000000e+00 
3.000000000000e+00 3.000000000000e+01 3.176501563866e-07 -8.817303289588e-19 0.000000000000e+00 
4.000000000000e+00 3.000000000000e+01 2.890940641358e-07 5.863361362778e-19 0.000000000000e+00 
5.000000000000e+00 3.000000000000e+01 7.031961909422e-09 -2.891878995158e-21 0.000000000000e+00 
6.000000000000e+00 3.000000000000e+01 8.886784302491e-09 1.195780892722e-20 0.000000000000e+00 
7.000000000000e+00 3.000000000000e+01 1.592578471864e-08 5.618373061724e-21 0.000000000000e+00 
8.000000000000e+00 3.000000000000e+01 2.515428718121e-07 -1.821158070831e-19 0.000000000000e+00 
9.000000000000e+00 3.000000000000e+01 2.536530849043e-07 -1.843259562958e-19 0.000000000000e+00 
1.000000000000e+01 3.000000000000e+01 1.616479717779e-08 -9.886461759844e-21 0.000000000000e+00 
1.100000000000e+01 3.000000000000e+01 5.652498216426e-09 5.273606792594e-21 0.000000000000e+00 
1.200000000000e+01 3.000000000000e+01 2.413427266898e-08 -3.510968007745e-20 0.000000000000e+00 
1.300000000000e+01 3.000000000000e+01 3.671080286944e-08 -6.785118484898e-20 0.000000000000e+00 
1.400000000000e+01 3.000000000000e+01 2.646980339233e-08 4.093124534368e-20 0.000000000000e+00 
1.500000000000e+01 3.000000000000e+01 2.168292135122e-08 3.016114225254e-21 0.000000000000e+00 
1.600000000000e+01 3.000000000000e+01 4.036389077176e-08 3.641164503191e-20 0.000000000000e+00 
1.700000000000e+01 3.000000000000e+01 1.100211124662e-07 5.231525834332e-20 0.000000000000e+00 
1.800000000000e+01 3.000000000000e+01 4.955696894187e-07 -6.690875976135e-19 0.000000000000e+00 
1.900000000000e+01 3.000000000000e+01 4.197808825348e-07 -9.542346558194e-19 0.000000000000e+00 
2.000000000000e+01 3.000000000000e+01 2.200539687643e-09 8.678798777849e-22 0.000000000000e+00 
2.100000000000e+01 3.000000000000e+01 1.325108467894e-09 -1.568573699758e-21 0.000000000000e+00 
2.200000000000e+01 3.000000000000e+01 3.177165068790e-09 2.196821363472e-21 0.000000000000e+00 
2.300000000000e+01 3.000000000000e+01 5.861329920734e-07 1.226708567708e-19 0.000000000000e+00 
2.400000000000e+01 3.000000000000e+01 6.106885572956e-07 -1.927282181920e-19 0.000000000000e+00 
2.500000000000e+01 3.000000000000e+01 6.070658641931e-08 2.583218046527e-20 0.000000000000e+00 
2.600000000000e+01 3.000000000000e+01 8.306858159240e-07 -7.609703298262e-19 0.000000000000e+00 
2.700000000000e+01 3.000000000000e+01 9.861107571254e-07 -9.087727840594e-19 0.000000000000e+00 
2.800000000000e+01 3.000000000000e+01 1.918239375397e-07 -1.534026317701e-19 0.000000000000e+00 
2.900000000000e+01 3.000000000000e+01 4.810231711630e-09 1.108635278323e-21 0.000000000000e+00 
3.000000000000e+01 3.000000000000e+01 7.701519875656e-09 -2.381246188387e-22 0.000000000000e+00 
