 TITLE = "Profiles along polylines"
 VARIABLES = "DIST" "HEAD" "VELOCITY_X1" "VELOCITY_Y1" "VELOCITY_Z1" 
 ZONE T="TIME=0.000000000000e+00"
0.000000000000e+00 3.000000000000e+01 0.000000000000e+00 0.000000000000e+00 0.000000000000e+00 
1.000000000000e+00 3.000000000000e+01 0.000000000000e+00 0.000000000000e+00 0.000000000000e+00 
2.000000000000e+00 3.000000000000e+01 0.000000000000e+00 0.000000000000e+00 0.000000000000e+00 
3.000000000000e+00 3.000000000000e+01 0.000000000000e+00 0.000000000000e+00 0.000000000000e+00 
4.000000000000e+00 3.000000000000e+01 0.000000000000e+00 0.000000000000e+00 0.000000000000e+00 
5.000000000000e+00 3.000000000000e+01 0.000000000000e+00 0.000000000000e+00 0.000000000000e+00 
6.000000000000e+00 3.000000000000e+01 0.000000000000e+00 0.000000000000e+00 0.000000000000e+00 
7.000000000000e+00 3.000000000000e+01 0.000000000000e+00 0.000000000000e+00 0.000000000000e+00 
8.000000000000e+00 3.000000000000e+01 0.000000000000e+00 0.000000000000e+00 0.000000000000e+00 
9.000000000000e+00 3.000000000000e+01 0.000000000000e+00 0.000000000000e+00 0.000000000000e+00 
1.000000000000e+01 3.000000000000e+01 0.000000000000e+00 0.000000000000e+00 0.000000000000e+00 
1.100000000000e+01 3.000000000000e+01 0.000000000000e+00 0.000000000000e+00 0.000000000000e+00 
1.200000000000e+01 3.000000000000e+01 0.000000000000e+00 0.000000000000e+00 0.000000000000e+00 
1.300000000000e+01 3.000000000000e+01 0.000000000000e+00 0.000000000000e+00 0.000000000000e+00 
1.400000000000e+01 3.000000000000e+01 0.000000000000e+00 0.000000000000e+00 0.000000000000e+00 
1.500000000000e+01 3.000000000000e+01 0.000000000000e+00 0.000000000000e+00 0.000000000000e+00 
1.600000000000e+01 3.000000000000e+01 0.000000000000e+00 0.000000000000e+00 0.000000000000e+00 
1.700000000000e+01 3.000000000000e+01 0.000000000000e+00 0.000000000000e+00 0.000000000000e+00 
1.800000000000e+01 3.000000000000e+01 0.000000000000e+00 0.000000000000e+00 0.000000000000e+00 
1.900000000000e+01 3.000000000000e+01 0.000000000000e+00 0.000000000000e+00 0.000000000000e+00 
2.000000000000e+01 3.000000000000e+01 0.000000000000e+00 0.000000000000e+00 0.000000000000e+00 
2.100000000000e+01 3.000000000000e+01 0.000000000000e+00 0.000000000000e+00 0.000000000000e+00 
2.200000000000e+01 3.000000000000e+01 0.000000000000e+00 0.000000000000e+00 0.000000000000e+00 
2.300000000000e+01 3.000000000000e+01 0.000000000000e+00 0.000000000000e+00 0.000000000000e+00 
2.400000000000e+01 3.000000000000e+01 0.000000000000e+00 0.000000000000e+00 0.000000000000e+00 
2.500000000000e+01 3.000000000000e+01 0.000000000000e+00 0.000000000000e+00 0.000000000000e+00 
2.600000000000e+01 3.000000000000e+01 0.000000000000e+00 0.000000000000e+00 0.000000000000e+00 
2.700000000000e+01 3.000000000000e+01 0.000000000000e+00 0.000000000000e+00 0.000000000000e+00 
2.800000000000e+01 3.000000000000e+01 0.000000000000e+00 0.000000000000e+00 0.000000000000e+00 
2.900000000000e+01 3.000000000000e+01 0.000000000000e+00 0.000000000000e+00 0.000000000000e+00 
3.000000000000e+01 3.000000000000e+01 0.000000000000e+00 0.000000000000e+00 0.000000000000e+00 
 TITLE = "Profiles along polylines"
 VARIABLES = "DIST" "HEAD" "VELOCITY_X1" "VELOCITY_Y1" "VELOCITY_Z1" 
 ZONE T="TIME=1.797693134862e+308"
0.000000000000e+00 3.054114753321e+01 1.228850533266e-09 -1.228929562310e-11 0.000000000000e+00 
1.000000000000e+00 3.054114808588e+01 3.076879986612e-09 -4.306287290143e-11 0.000000000000e+00 
2.000000000000e+00 3.054114891442e+01 4.359037124985e-09 -1.174398221417e-10 0.000000000000e+00 
3.000000000000e+00 3.054115126071e+01 1.765139229867e-08 -3.375759890603e-10 0.000000000000e+00 
4.000000000000e+00 3.054115216239e+01 1.606445702789e-08 -6.748127922995e-10 0.000000000000e+00 
5.000000000000e+00 3.054122672100e+01 3.905305788972e-10 -8.394232051134e-10 0.000000000000e+00 
6.000000000000e+00 3.054151482469e+01 4.924532580543e-10 -8.482545787767e-10 0.000000000000e+00 
7.000000000000e+00 3.054157210522e+01 8.821264007375e-10 -8.620029241120e-10 0.000000000000e+00 
8.000000000000e+00 3.054162324163e+01 1.392745795894e-08 -1.010113403339e-09 0.000000000000e+00 
9.000000000000e+00 3.054162560176e+01 1.404403731303e-08 -1.289893896777e-09 0.000000000000e+00 
1.000000000000e+01 3.054169291881e+01 8.945230787119e-10 -1.439334689523e-09 0.000000000000e+00 
1.100000000000e+01 3.054182310913e+01 3.124754621314e-10 -1.451407423145e-09 0.000000000000e+00 
1.200000000000e+01 3.054972123693e+01 1.255964042077e-09 -1.467093517175e-09 0.000000000000e+00 
1.300000000000e+01 3.054975392345e+01 1.909978643695e-09 -1.498759362488e-09 0.000000000000e+00 
1.400000000000e+01 3.054981755935e+01 1.376465768637e-09 -1.531632278518e-09 0.000000000000e+00 
1.500000000000e+01 3.054987708786e+01 1.126992043030e-09 -1.556672895094e-09 0.000000000000e+00 
1.600000000000e+01 3.054998285785e+01 2.096098768107e-09 -1.588909568007e-09 0.000000000000e+00 
1.700000000000e+01 3.055000923549e+01 5.712090495111e-09 -1.667005043586e-09 0.000000000000e+00 
1.800000000000e+01 3.055002107030e+01 2.572614530231e-08 -1.981434804972e-09 0.000000000000e+00 
1.900000000000e+01 3.055002392102e+01 2.179101215954e-08 -2.456719865662e-09 0.000000000000e+00 
2.000000000000e+01 3.055084071741e+01 1.129524110583e-10 -2.675836557777e-09 0.000000000000e+00 
2.100000000000e+01 3.055413340058e+01 6.507504765380e-11 -2.677617183738e-09 0.000000000000e+00 
2.200000000000e+01 3.055587029739e+01 1.525318739774e-10 -2.679793555405e-09 0.000000000000e+00 
2.300000000000e+01 3.055654434302e+01 2.789324539505e-08 -2.960272625438e-09 0.000000000000e+00 
2.400000000000e+01 3.055654756471e+01 2.905736892314e-08 -3.529907899750e-09 0.000000000000e+00 
2.500000000000e+01 3.055663042980e+01 2.871004351123e-09 -3.849305525810e-09 0.000000000000e+00 
2.600000000000e+01 3.055669753317e+01 3.907674336627e-08 -4.268829734807e-09 0.000000000000e+00 
2.700000000000e+01 3.055670096861e+01 4.635452355898e-08 -5.123341694666e-09 0.000000000000e+00 
2.800000000000e+01 3.055671836478e+01 8.962597919900e-09 -5.676699003536e-09 0.000000000000e+00 
2.900000000000e+01 3.055853197617e+01 1.253593383872e-10 -5.767606432711e-09 0.000000000000e+00 
3.000000000000e+01 3.056278283651e+01 7.500156411305e-11 -5.768860173101e-09 0.000000000000e+00 
