VARIABLES = "X","Y","Z",VELOCITY1_X,VELOCITY1_Y,VELOCITY1_Z
ZONE T="0.000000000000e+00s", 
8.990000000000e+02 0.000000000000e+00 5.000000000000e-01 0.000000000000e+00 0.000000000000e+00 0.000000000000e+00
9.000000000000e+02 0.000000000000e+00 5.000000000000e-01 0.000000000000e+00 0.000000000000e+00 0.000000000000e+00
8.990000000000e+02 0.000000000000e+00 1.500000000000e+00 0.000000000000e+00 0.000000000000e+00 0.000000000000e+00
9.000000000000e+02 0.000000000000e+00 1.500000000000e+00 0.000000000000e+00 0.000000000000e+00 0.000000000000e+00
8.990000000000e+02 0.000000000000e+00 2.500000000000e+00 0.000000000000e+00 0.000000000000e+00 0.000000000000e+00
9.000000000000e+02 0.000000000000e+00 2.500000000000e+00 0.000000000000e+00 0.000000000000e+00 0.000000000000e+00
8.990000000000e+02 0.000000000000e+00 3.500000000000e+00 0.000000000000e+00 0.000000000000e+00 0.000000000000e+00
9.000000000000e+02 0.000000000000e+00 3.500000000000e+00 0.000000000000e+00 0.000000000000e+00 0.000000000000e+00
8.990000000000e+02 0.000000000000e+00 4.500000000000e+00 0.000000000000e+00 0.000000000000e+00 0.000000000000e+00
9.000000000000e+02 0.000000000000e+00 4.500000000000e+00 0.000000000000e+00 0.000000000000e+00 0.000000000000e+00
8.990000000000e+02 0.000000000000e+00 5.500000000000e+00 0.000000000000e+00 0.000000000000e+00 0.000000000000e+00
9.000000000000e+02 0.000000000000e+00 5.500000000000e+00 0.000000000000e+00 0.000000000000e+00 0.000000000000e+00
8.990000000000e+02 0.000000000000e+00 6.500000000000e+00 0.000000000000e+00 0.000000000000e+00 0.000000000000e+00
9.000000000000e+02 0.000000000000e+00 6.500000000000e+00 0.000000000000e+00 0.000000000000e+00 0.000000000000e+00
8.990000000000e+02 0.000000000000e+00 7.500000000000e+00 0.000000000000e+00 0.000000000000e+00 0.000000000000e+00
9.000000000000e+02 0.000000000000e+00 7.500000000000e+00 0.000000000000e+00 0.000000000000e+00 0.000000000000e+00
8.990000000000e+02 0.000000000000e+00 8.500000000000e+00 0.000000000000e+00 0.000000000000e+00 0.000000000000e+00
9.000000000000e+02 0.000000000000e+00 8.500000000000e+00 0.000000000000e+00 0.000000000000e+00 0.000000000000e+00
8.990000000000e+02 0.000000000000e+00 9.500000000000e+00 0.000000000000e+00 0.000000000000e+00 0.000000000000e+00
9.000000000000e+02 0.000000000000e+00 9.500000000000e+00 0.000000000000e+00 0.000000000000e+00 0.000000000000e+00
8.990000000000e+02 0.000000000000e+00 1.050000000000e+01 0.000000000000e+00 0.000000000000e+00 0.000000000000e+00
9.000000000000e+02 0.000000000000e+00 1.050000000000e+01 0.000000000000e+00 0.000000000000e+00 0.000000000000e+00
8.990000000000e+02 0.000000000000e+00 1.150000000000e+01 0.000000000000e+00 0.000000000000e+00 0.000000000000e+00
9.000000000000e+02 0.000000000000e+00 1.150000000000e+01 0.000000000000e+00 0.000000000000e+00 0.000000000000e+00
8.990000000000e+02 0.000000000000e+00 1.250000000000e+01 0.000000000000e+00 0.000000000000e+00 0.000000000000e+00
9.000000000000e+02 0.000000000000e+00 1.250000000000e+01 0.000000000000e+00 0.000000000000e+00 0.000000000000e+00
8.990000000000e+02 0.000000000000e+00 1.350000000000e+01 0.000000000000e+00 0.000000000000e+00 0.000000000000e+00
9.000000000000e+02 0.000000000000e+00 1.350000000000e+01 0.000000000000e+00 0.000000000000e+00 0.000000000000e+00
8.990000000000e+02 0.000000000000e+00 1.450000000000e+01 0.000000000000e+00 0.000000000000e+00 0.000000000000e+00
9.000000000000e+02 0.000000000000e+00 1.450000000000e+01 0.000000000000e+00 0.000000000000e+00 0.000000000000e+00
8.990000000000e+02 0.000000000000e+00 1.550000000000e+01 0.000000000000e+00 0.000000000000e+00 0.000000000000e+00
9.000000000000e+02 0.000000000000e+00 1.550000000000e+01 0.000000000000e+00 0.000000000000e+00 0.000000000000e+00
8.990000000000e+02 0.000000000000e+00 1.650000000000e+01 0.000000000000e+00 0.000000000000e+00 0.000000000000e+00
9.000000000000e+02 0.000000000000e+00 1.650000000000e+01 0.000000000000e+00 0.000000000000e+00 0.000000000000e+00
8.990000000000e+02 0.000000000000e+00 1.750000000000e+01 0.000000000000e+00 0.000000000000e+00 0.000000000000e+00
9.000000000000e+02 0.000000000000e+00 1.750000000000e+01 0.000000000000e+00 0.000000000000e+00 0.000000000000e+00
8.990000000000e+02 0.000000000000e+00 1.850000000000e+01 0.000000000000e+00 0.000000000000e+00 0.000000000000e+00
9.000000000000e+02 0.000000000000e+00 1.850000000000e+01 0.000000000000e+00 0.000000000000e+00 0.000000000000e+00
8.990000000000e+02 0.000000000000e+00 1.950000000000e+01 0.000000000000e+00 0.000000000000e+00 0.000000000000e+00
9.000000000000e+02 0.000000000000e+00 1.950000000000e+01 0.000000000000e+00 0.000000000000e+00 0.000000000000e+00
8.990000000000e+02 0.000000000000e+00 2.050000000000e+01 0.000000000000e+00 0.000000000000e+00 0.000000000000e+00
9.000000000000e+02 0.000000000000e+00 2.050000000000e+01 0.000000000000e+00 0.000000000000e+00 0.000000000000e+00
8.990000000000e+02 0.000000000000e+00 2.150000000000e+01 0.000000000000e+00 0.000000000000e+00 0.000000000000e+00
9.000000000000e+02 0.000000000000e+00 2.150000000000e+01 0.000000000000e+00 0.000000000000e+00 0.000000000000e+00
8.990000000000e+02 0.000000000000e+00 2.250000000000e+01 0.000000000000e+00 0.000000000000e+00 0.000000000000e+00
9.000000000000e+02 0.000000000000e+00 2.250000000000e+01 0.000000000000e+00 0.000000000000e+00 0.000000000000e+00
8.990000000000e+02 0.000000000000e+00 2.350000000000e+01 0.000000000000e+00 0.000000000000e+00 0.000000000000e+00
9.000000000000e+02 0.000000000000e+00 2.350000000000e+01 0.000000000000e+00 0.000000000000e+00 0.000000000000e+00
8.990000000000e+02 0.000000000000e+00 2.450000000000e+01 0.000000000000e+00 0.000000000000e+00 0.000000000000e+00
9.000000000000e+02 0.000000000000e+00 2.450000000000e+01 0.000000000000e+00 0.000000000000e+00 0.000000000000e+00
8.990000000000e+02 0.000000000000e+00 2.550000000000e+01 0.000000000000e+00 0.000000000000e+00 0.000000000000e+00
9.000000000000e+02 0.000000000000e+00 2.550000000000e+01 0.000000000000e+00 0.000000000000e+00 0.000000000000e+00
8.990000000000e+02 0.000000000000e+00 2.650000000000e+01 0.000000000000e+00 0.000000000000e+00 0.000000000000e+00
9.000000000000e+02 0.000000000000e+00 2.650000000000e+01 0.000000000000e+00 0.000000000000e+00 0.000000000000e+00
8.990000000000e+02 0.000000000000e+00 2.750000000000e+01 0.000000000000e+00 0.000000000000e+00 0.000000000000e+00
9.000000000000e+02 0.000000000000e+00 2.750000000000e+01 0.000000000000e+00 0.000000000000e+00 0.000000000000e+00
8.990000000000e+02 0.000000000000e+00 2.850000000000e+01 0.000000000000e+00 0.000000000000e+00 0.000000000000e+00
9.000000000000e+02 0.000000000000e+00 2.850000000000e+01 0.000000000000e+00 0.000000000000e+00 0.000000000000e+00
8.990000000000e+02 0.000000000000e+00 2.950000000000e+01 0.000000000000e+00 0.000000000000e+00 0.000000000000e+00
9.000000000000e+02 0.000000000000e+00 2.950000000000e+01 0.000000000000e+00 0.000000000000e+00 0.000000000000e+00
VARIABLES = "X","Y","Z",VELOCITY1_X,VELOCITY1_Y,VELOCITY1_Z
ZONE T="1.797693134862e+308s", 
8.990000000000e+02 0.000000000000e+00 5.000000000000e-01 2.127105420982e-08 -7.609207126204e-12 0.000000000000e+00
9.000000000000e+02 0.000000000000e+00 5.000000000000e-01 2.128618280176e-08 -7.558798618395e-12 0.000000000000e+00
8.990000000000e+02 0.000000000000e+00 1.500000000000e+00 8.524899752181e-08 -4.571568499949e-11 0.000000000000e+00
9.000000000000e+02 0.000000000000e+00 1.500000000000e+00 8.530963110483e-08 -4.541274932414e-11 0.000000000000e+00
8.990000000000e+02 0.000000000000e+00 2.500000000000e+00 6.565905782985e-08 -9.970426152552e-11 0.000000000000e+00
9.000000000000e+02 0.000000000000e+00 2.500000000000e+00 6.570576062565e-08 -9.904350644045e-11 0.000000000000e+00
8.990000000000e+02 0.000000000000e+00 3.500000000000e+00 5.454315258524e-07 -3.183518103914e-10 0.000000000000e+00
9.000000000000e+02 0.000000000000e+00 3.500000000000e+00 5.458195331631e-07 -3.162423459455e-10 0.000000000000e+00
8.990000000000e+02 0.000000000000e+00 4.500000000000e+00 1.072041319630e-08 -5.173543281277e-10 0.000000000000e+00
9.000000000000e+02 0.000000000000e+00 4.500000000000e+00 1.072804321555e-08 -5.139279261549e-10 0.000000000000e+00
8.990000000000e+02 0.000000000000e+00 5.500000000000e+00 2.801470619332e-09 -5.222126244327e-10 0.000000000000e+00
9.000000000000e+02 0.000000000000e+00 5.500000000000e+00 2.803475006193e-09 -5.187544000885e-10 0.000000000000e+00
8.990000000000e+02 0.000000000000e+00 6.500000000000e+00 1.427111155345e-08 -5.284392425631e-10 0.000000000000e+00
9.000000000000e+02 0.000000000000e+00 6.500000000000e+00 1.428146410900e-08 -5.249414216010e-10 0.000000000000e+00
8.990000000000e+02 0.000000000000e+00 7.500000000000e+00 1.632039979572e-08 -5.396289256662e-10 0.000000000000e+00
9.000000000000e+02 0.000000000000e+00 7.500000000000e+00 1.633227396984e-08 -5.360603725941e-10 0.000000000000e+00
8.990000000000e+02 0.000000000000e+00 8.500000000000e+00 4.668192886180e-07 -7.167975395902e-10 0.000000000000e+00
9.000000000000e+02 0.000000000000e+00 8.500000000000e+00 4.671597390296e-07 -7.121153914581e-10 0.000000000000e+00
8.990000000000e+02 0.000000000000e+00 9.500000000000e+00 2.036856885211e-08 -8.954792685269e-10 0.000000000000e+00
9.000000000000e+02 0.000000000000e+00 9.500000000000e+00 2.038343119389e-08 -8.896748158915e-10 0.000000000000e+00
8.990000000000e+02 0.000000000000e+00 1.050000000000e+01 1.066701629965e-08 -9.069029888869e-10 0.000000000000e+00
9.000000000000e+02 0.000000000000e+00 1.050000000000e+01 1.067483017482e-08 -9.010274211868e-10 0.000000000000e+00
8.990000000000e+02 0.000000000000e+00 1.150000000000e+01 1.773411546877e-10 -9.109226349116e-10 0.000000000000e+00
9.000000000000e+02 0.000000000000e+00 1.150000000000e+01 1.774778773551e-10 -9.050224223368e-10 0.000000000000e+00
8.990000000000e+02 0.000000000000e+00 1.250000000000e+01 4.487760056393e-08 -9.341734450778e-10 0.000000000000e+00
9.000000000000e+02 0.000000000000e+00 1.250000000000e+01 4.492383095356e-08 -9.282236323023e-10 0.000000000000e+00
8.990000000000e+02 0.000000000000e+00 1.350000000000e+01 2.365006352434e-08 -9.695786032195e-10 0.000000000000e+00
9.000000000000e+02 0.000000000000e+00 1.350000000000e+01 2.367445750261e-08 -9.635531271149e-10 0.000000000000e+00
8.990000000000e+02 0.000000000000e+00 1.450000000000e+01 2.574702277443e-08 -9.951569156388e-10 0.000000000000e+00
9.000000000000e+02 0.000000000000e+00 1.450000000000e+01 2.577363930594e-08 -9.890772513816e-10 0.000000000000e+00
8.990000000000e+02 0.000000000000e+00 1.550000000000e+01 1.470587588612e-08 -1.016147945675e-09 0.000000000000e+00
9.000000000000e+02 0.000000000000e+00 1.550000000000e+01 1.472111354643e-08 -1.010024337725e-09 0.000000000000e+00
8.990000000000e+02 0.000000000000e+00 1.650000000000e+01 6.056801856064e-08 -1.055350941239e-09 0.000000000000e+00
9.000000000000e+02 0.000000000000e+00 1.650000000000e+01 6.063099406059e-08 -1.049147189916e-09 0.000000000000e+00
8.990000000000e+02 0.000000000000e+00 1.750000000000e+01 1.445903977604e-07 -1.162294282823e-09 0.000000000000e+00
9.000000000000e+02 0.000000000000e+00 1.750000000000e+01 1.447408693577e-07 -1.155873073105e-09 0.000000000000e+00
8.990000000000e+02 0.000000000000e+00 1.850000000000e+01 7.794608303764e-07 -1.644173243664e-09 0.000000000000e+00
9.000000000000e+02 0.000000000000e+00 1.850000000000e+01 7.802723192232e-07 -1.636774387510e-09 0.000000000000e+00
8.990000000000e+02 0.000000000000e+00 1.950000000000e+01 3.251144675982e-09 -2.052391200839e-09 0.000000000000e+00
9.000000000000e+02 0.000000000000e+00 1.950000000000e+01 3.254542446838e-09 -2.044172790458e-09 0.000000000000e+00
8.990000000000e+02 0.000000000000e+00 2.050000000000e+01 8.099059692216e-10 -2.054581683891e-09 0.000000000000e+00
9.000000000000e+02 0.000000000000e+00 2.050000000000e+01 8.107899204849e-10 -2.046360336536e-09 0.000000000000e+00
8.990000000000e+02 0.000000000000e+00 2.150000000000e+01 1.550845154860e-09 -2.056016732318e-09 0.000000000000e+00
9.000000000000e+02 0.000000000000e+00 2.150000000000e+01 1.552739531991e-09 -2.047796634886e-09 0.000000000000e+00
8.990000000000e+02 0.000000000000e+00 2.250000000000e+01 4.020516003642e-09 -2.059594243357e-09 0.000000000000e+00
9.000000000000e+02 0.000000000000e+00 2.250000000000e+01 4.025694382833e-09 -2.051380751037e-09 0.000000000000e+00
8.990000000000e+02 0.000000000000e+00 2.350000000000e+01 1.018040683144e-06 -2.728952563468e-09 0.000000000000e+00
9.000000000000e+02 0.000000000000e+00 2.350000000000e+01 1.019376735871e-06 -2.722207844881e-09 0.000000000000e+00
8.990000000000e+02 0.000000000000e+00 2.450000000000e+01 4.668473950167e-08 -3.426304972721e-09 0.000000000000e+00
9.000000000000e+02 0.000000000000e+00 2.450000000000e+01 4.674601900773e-08 -3.421087239612e-09 0.000000000000e+00
8.990000000000e+02 0.000000000000e+00 2.550000000000e+01 5.852335398831e-08 -3.495291217938e-09 0.000000000000e+00
9.000000000000e+02 0.000000000000e+00 2.550000000000e+01 5.860025829142e-08 -3.490225772972e-09 0.000000000000e+00
8.990000000000e+02 0.000000000000e+00 2.650000000000e+01 1.373620348820e-06 -4.435143336862e-09 0.000000000000e+00
9.000000000000e+02 0.000000000000e+00 2.650000000000e+01 1.375426801713e-06 -4.432170847598e-09 0.000000000000e+00
8.990000000000e+02 0.000000000000e+00 2.750000000000e+01 3.252566811037e-07 -5.550108181929e-09 0.000000000000e+00
9.000000000000e+02 0.000000000000e+00 2.750000000000e+01 3.256844352984e-07 -5.549621774693e-09 0.000000000000e+00
8.990000000000e+02 0.000000000000e+00 2.850000000000e+01 3.219996044201e-09 -5.765692945922e-09 0.000000000000e+00
9.000000000000e+02 0.000000000000e+00 2.850000000000e+01 3.224230817924e-09 -5.765684243543e-09 0.000000000000e+00
8.990000000000e+02 0.000000000000e+00 2.950000000000e+01 1.374398459389e-09 -5.768708273407e-09 0.000000000000e+00
9.000000000000e+02 0.000000000000e+00 2.950000000000e+01 1.376206051334e-09 -5.768706268500e-09 0.000000000000e+00
