 TITLE = "Profiles along polylines"
 VARIABLES = "DIST" "HEAD" "VELOCITY_X1" "VELOCITY_Y1" "VELOCITY_Z1" 
 ZONE T="TIME=0.000000000000e+00"
0.000000000000e+00 3.000000000000e+01 0.000000000000e+00 0.000000000000e+00 0.000000000000e+00 
1.000000000000e+00 3.000000000000e+01 0.000000000000e+00 0.000000000000e+00 0.000000000000e+00 
2.000000000000e+00 3.000000000000e+01 0.000000000000e+00 0.000000000000e+00 0.000000000000e+00 
3.000000000000e+00 3.000000000000e+01 0.000000000000e+00 0.000000000000e+00 0.000000000000e+00 
4.000000000000e+00 3.000000000000e+01 0.000000000000e+00 0.000000000000e+00 0.000000000000e+00 
5.000000000000e+00 3.000000000000e+01 0.000000000000e+00 0.000000000000e+00 0.000000000000e+00 
6.000000000000e+00 3.000000000000e+01 0.000000000000e+00 0.000000000000e+00 0.000000000000e+00 
7.000000000000e+00 3.000000000000e+01 0.000000000000e+00 0.000000000000e+00 0.000000000000e+00 
8.000000000000e+00 3.000000000000e+01 0.000000000000e+00 0.000000000000e+00 0.000000000000e+00 
9.000000000000e+00 3.000000000000e+01 0.000000000000e+00 0.000000000000e+00 0.000000000000e+00 
1.000000000000e+01 3.000000000000e+01 0.000000000000e+00 0.000000000000e+00 0.000000000000e+00 
1.100000000000e+01 3.000000000000e+01 0.000000000000e+00 0.000000000000e+00 0.000000000000e+00 
1.200000000000e+01 3.000000000000e+01 0.000000000000e+00 0.000000000000e+00 0.000000000000e+00 
1.300000000000e+01 3.000000000000e+01 0.000000000000e+00 0.000000000000e+00 0.000000000000e+00 
1.400000000000e+01 3.000000000000e+01 0.000000000000e+00 0.000000000000e+00 0.000000000000e+00 
1.500000000000e+01 3.000000000000e+01 0.000000000000e+00 0.000000000000e+00 0.000000000000e+00 
1.600000000000e+01 3.000000000000e+01 0.000000000000e+00 0.000000000000e+00 0.000000000000e+00 
1.700000000000e+01 3.000000000000e+01 0.000000000000e+00 0.000000000000e+00 0.000000000000e+00 
1.800000000000e+01 3.000000000000e+01 0.000000000000e+00 0.000000000000e+00 0.000000000000e+00 
1.900000000000e+01 3.000000000000e+01 0.000000000000e+00 0.000000000000e+00 0.000000000000e+00 
2.000000000000e+01 3.000000000000e+01 0.000000000000e+00 0.000000000000e+00 0.000000000000e+00 
2.100000000000e+01 3.000000000000e+01 0.000000000000e+00 0.000000000000e+00 0.000000000000e+00 
2.200000000000e+01 3.000000000000e+01 0.000000000000e+00 0.000000000000e+00 0.000000000000e+00 
2.300000000000e+01 3.000000000000e+01 0.000000000000e+00 0.000000000000e+00 0.000000000000e+00 
2.400000000000e+01 3.000000000000e+01 0.000000000000e+00 0.000000000000e+00 0.000000000000e+00 
2.500000000000e+01 3.000000000000e+01 0.000000000000e+00 0.000000000000e+00 0.000000000000e+00 
2.600000000000e+01 3.000000000000e+01 0.000000000000e+00 0.000000000000e+00 0.000000000000e+00 
2.700000000000e+01 3.000000000000e+01 0.000000000000e+00 0.000000000000e+00 0.000000000000e+00 
2.800000000000e+01 3.000000000000e+01 0.000000000000e+00 0.000000000000e+00 0.000000000000e+00 
2.900000000000e+01 3.000000000000e+01 0.000000000000e+00 0.000000000000e+00 0.000000000000e+00 
3.000000000000e+01 3.000000000000e+01 0.000000000000e+00 0.000000000000e+00 0.000000000000e+00 
 TITLE = "Profiles along polylines"
 VARIABLES = "DIST" "HEAD" "VELOCITY_X1" "VELOCITY_Y1" "VELOCITY_Z1" 
 ZONE T="TIME=1.797693134862e+308"
0.000000000000e+00 3.000994344774e+01 2.210410026287e-08 -9.344792524136e-13 0.000000000000e+00 
1.000000000000e+00 3.000994348977e+01 5.534598942546e-08 -3.274658551952e-12 0.000000000000e+00 
2.000000000000e+00 3.000994355277e+01 7.840954237419e-08 -8.930721799366e-12 0.000000000000e+00 
3.000000000000e+00 3.000994373120e+01 3.175156670353e-07 -2.567801102929e-11 0.000000000000e+00 
4.000000000000e+00 3.000994379979e+01 2.889716482947e-07 -5.133508810689e-11 0.000000000000e+00 
5.000000000000e+00 3.000994947173e+01 7.028949614358e-09 -6.386151828726e-11 0.000000000000e+00 
6.000000000000e+00 3.000997139126e+01 8.882808742096e-09 -6.455907549054e-11 0.000000000000e+00 
7.000000000000e+00 3.000997575225e+01 1.591859992506e-08 -6.567296586187e-11 0.000000000000e+00 
8.000000000000e+00 3.000997965079e+01 2.514285295855e-07 -7.780119378261e-11 0.000000000000e+00 
9.000000000000e+00 3.000997983397e+01 2.535377374298e-07 -1.007229713590e-10 0.000000000000e+00 
1.000000000000e+01 3.000998511592e+01 1.615735373496e-08 -1.129760902773e-10 0.000000000000e+00 
1.100000000000e+01 3.000999533842e+01 5.649832545389e-09 -1.139843551622e-10 0.000000000000e+00 
1.200000000000e+01 3.001061571785e+01 2.410752071458e-08 -1.168830959361e-10 0.000000000000e+00 
1.300000000000e+01 3.001061835804e+01 3.666998166703e-08 -1.235329498158e-10 0.000000000000e+00 
1.400000000000e+01 3.001062370552e+01 2.644011062518e-08 -1.304695534265e-10 0.000000000000e+00 
1.500000000000e+01 3.001062884365e+01 2.165835653745e-08 -1.358027341827e-10 0.000000000000e+00 
1.600000000000e+01 3.001063816739e+01 4.031724234538e-08 -1.427908122773e-10 0.000000000000e+00 
1.700000000000e+01 3.001064058196e+01 1.098931705863e-07 -1.599035026577e-10 0.000000000000e+00 
1.800000000000e+01 3.001064176564e+01 4.949909304520e-07 -2.291233406432e-10 0.000000000000e+00 
1.900000000000e+01 3.001064212957e+01 4.192895334877e-07 -3.339027723068e-10 0.000000000000e+00 
2.000000000000e+01 3.001075878407e+01 2.195829136000e-09 -3.824205348236e-10 0.000000000000e+00 
2.100000000000e+01 3.001122968011e+01 1.317292930720e-09 -3.834820419571e-10 0.000000000000e+00 
2.200000000000e+01 3.001147878992e+01 3.152269262334e-09 -3.861291502814e-10 0.000000000000e+00 
2.300000000000e+01 3.001157636152e+01 5.810477401503e-07 -7.924846810116e-10 0.000000000000e+00 
2.400000000000e+01 3.001157755187e+01 6.053300070405e-07 -1.619826889197e-09 0.000000000000e+00 
2.500000000000e+01 3.001162185875e+01 5.990785175164e-08 -2.091932487729e-09 0.000000000000e+00 
2.600000000000e+01 3.001165890635e+01 8.164601815199e-07 -2.889407310397e-09 0.000000000000e+00 
2.700000000000e+01 3.001166158839e+01 9.685525346502e-07 -4.527954012591e-09 0.000000000000e+00 
2.800000000000e+01 3.001167845864e+01 1.872731499752e-07 -5.590644842615e-09 0.000000000000e+00 
2.900000000000e+01 3.001349106292e+01 2.619646232077e-09 -5.765625482309e-09 0.000000000000e+00 
3.000000000000e+01 3.001774136340e+01 1.567428086890e-09 -5.768100404395e-09 0.000000000000e+00 
