VARIABLES = "X","Y","Z",VELOCITY1_X,VELOCITY1_Y,VELOCITY1_Z
ZONE T="0.000000000000e+00s", 
4.900000000000e+01 0.000000000000e+00 5.000000000000e-01 0.000000000000e+00 0.000000000000e+00 0.000000000000e+00
5.000000000000e+01 0.000000000000e+00 5.000000000000e-01 0.000000000000e+00 0.000000000000e+00 0.000000000000e+00
4.900000000000e+01 0.000000000000e+00 1.500000000000e+00 0.000000000000e+00 0.000000000000e+00 0.000000000000e+00
5.000000000000e+01 0.000000000000e+00 1.500000000000e+00 0.000000000000e+00 0.000000000000e+00 0.000000000000e+00
4.900000000000e+01 0.000000000000e+00 2.500000000000e+00 0.000000000000e+00 0.000000000000e+00 0.000000000000e+00
5.000000000000e+01 0.000000000000e+00 2.500000000000e+00 0.000000000000e+00 0.000000000000e+00 0.000000000000e+00
4.900000000000e+01 0.000000000000e+00 3.500000000000e+00 0.000000000000e+00 0.000000000000e+00 0.000000000000e+00
5.000000000000e+01 0.000000000000e+00 3.500000000000e+00 0.000000000000e+00 0.000000000000e+00 0.000000000000e+00
4.900000000000e+01 0.000000000000e+00 4.500000000000e+00 0.000000000000e+00 0.000000000000e+00 0.000000000000e+00
5.000000000000e+01 0.000000000000e+00 4.500000000000e+00 0.000000000000e+00 0.000000000000e+00 0.000000000000e+00
4.900000000000e+01 0.000000000000e+00 5.500000000000e+00 0.000000000000e+00 0.000000000000e+00 0.000000000000e+00
5.000000000000e+01 0.000000000000e+00 5.500000000000e+00 0.000000000000e+00 0.000000000000e+00 0.000000000000e+00
4.900000000000e+01 0.000000000000e+00 6.500000000000e+00 0.000000000000e+00 0.000000000000e+00 0.000000000000e+00
5.000000000000e+01 0.000000000000e+00 6.500000000000e+00 0.000000000000e+00 0.000000000000e+00 0.000000000000e+00
4.900000000000e+01 0.000000000000e+00 7.500000000000e+00 0.000000000000e+00 0.000000000000e+00 0.000000000000e+00
5.000000000000e+01 0.000000000000e+00 7.500000000000e+00 0.000000000000e+00 0.000000000000e+00 0.000000000000e+00
4.900000000000e+01 0.000000000000e+00 8.500000000000e+00 0.000000000000e+00 0.000000000000e+00 0.000000000000e+00
5.000000000000e+01 0.000000000000e+00 8.500000000000e+00 0.000000000000e+00 0.000000000000e+00 0.000000000000e+00
4.900000000000e+01 0.000000000000e+00 9.500000000000e+00 0.000000000000e+00 0.000000000000e+00 0.000000000000e+00
5.000000000000e+01 0.000000000000e+00 9.500000000000e+00 0.000000000000e+00 0.000000000000e+00 0.000000000000e+00
4.900000000000e+01 0.000000000000e+00 1.050000000000e+01 0.000000000000e+00 0.000000000000e+00 0.000000000000e+00
5.000000000000e+01 0.000000000000e+00 1.050000000000e+01 0.000000000000e+00 0.000000000000e+00 0.000000000000e+00
4.900000000000e+01 0.000000000000e+00 1.150000000000e+01 0.000000000000e+00 0.000000000000e+00 0.000000000000e+00
5.000000000000e+01 0.000000000000e+00 1.150000000000e+01 0.000000000000e+00 0.000000000000e+00 0.000000000000e+00
4.900000000000e+01 0.000000000000e+00 1.250000000000e+01 0.000000000000e+00 0.000000000000e+00 0.000000000000e+00
5.000000000000e+01 0.000000000000e+00 1.250000000000e+01 0.000000000000e+00 0.000000000000e+00 0.000000000000e+00
4.900000000000e+01 0.000000000000e+00 1.350000000000e+01 0.000000000000e+00 0.000000000000e+00 0.000000000000e+00
5.000000000000e+01 0.000000000000e+00 1.350000000000e+01 0.000000000000e+00 0.000000000000e+00 0.000000000000e+00
4.900000000000e+01 0.000000000000e+00 1.450000000000e+01 0.000000000000e+00 0.000000000000e+00 0.000000000000e+00
5.000000000000e+01 0.000000000000e+00 1.450000000000e+01 0.000000000000e+00 0.000000000000e+00 0.000000000000e+00
4.900000000000e+01 0.000000000000e+00 1.550000000000e+01 0.000000000000e+00 0.000000000000e+00 0.000000000000e+00
5.000000000000e+01 0.000000000000e+00 1.550000000000e+01 0.000000000000e+00 0.000000000000e+00 0.000000000000e+00
4.900000000000e+01 0.000000000000e+00 1.650000000000e+01 0.000000000000e+00 0.000000000000e+00 0.000000000000e+00
5.000000000000e+01 0.000000000000e+00 1.650000000000e+01 0.000000000000e+00 0.000000000000e+00 0.000000000000e+00
4.900000000000e+01 0.000000000000e+00 1.750000000000e+01 0.000000000000e+00 0.000000000000e+00 0.000000000000e+00
5.000000000000e+01 0.000000000000e+00 1.750000000000e+01 0.000000000000e+00 0.000000000000e+00 0.000000000000e+00
4.900000000000e+01 0.000000000000e+00 1.850000000000e+01 0.000000000000e+00 0.000000000000e+00 0.000000000000e+00
5.000000000000e+01 0.000000000000e+00 1.850000000000e+01 0.000000000000e+00 0.000000000000e+00 0.000000000000e+00
4.900000000000e+01 0.000000000000e+00 1.950000000000e+01 0.000000000000e+00 0.000000000000e+00 0.000000000000e+00
5.000000000000e+01 0.000000000000e+00 1.950000000000e+01 0.000000000000e+00 0.000000000000e+00 0.000000000000e+00
4.900000000000e+01 0.000000000000e+00 2.050000000000e+01 0.000000000000e+00 0.000000000000e+00 0.000000000000e+00
5.000000000000e+01 0.000000000000e+00 2.050000000000e+01 0.000000000000e+00 0.000000000000e+00 0.000000000000e+00
4.900000000000e+01 0.000000000000e+00 2.150000000000e+01 0.000000000000e+00 0.000000000000e+00 0.000000000000e+00
5.000000000000e+01 0.000000000000e+00 2.150000000000e+01 0.000000000000e+00 0.000000000000e+00 0.000000000000e+00
4.900000000000e+01 0.000000000000e+00 2.250000000000e+01 0.000000000000e+00 0.000000000000e+00 0.000000000000e+00
5.000000000000e+01 0.000000000000e+00 2.250000000000e+01 0.000000000000e+00 0.000000000000e+00 0.000000000000e+00
4.900000000000e+01 0.000000000000e+00 2.350000000000e+01 0.000000000000e+00 0.000000000000e+00 0.000000000000e+00
5.000000000000e+01 0.000000000000e+00 2.350000000000e+01 0.000000000000e+00 0.000000000000e+00 0.000000000000e+00
4.900000000000e+01 0.000000000000e+00 2.450000000000e+01 0.000000000000e+00 0.000000000000e+00 0.000000000000e+00
5.000000000000e+01 0.000000000000e+00 2.450000000000e+01 0.000000000000e+00 0.000000000000e+00 0.000000000000e+00
4.900000000000e+01 0.000000000000e+00 2.550000000000e+01 0.000000000000e+00 0.000000000000e+00 0.000000000000e+00
5.000000000000e+01 0.000000000000e+00 2.550000000000e+01 0.000000000000e+00 0.000000000000e+00 0.000000000000e+00
4.900000000000e+01 0.000000000000e+00 2.650000000000e+01 0.000000000000e+00 0.000000000000e+00 0.000000000000e+00
5.000000000000e+01 0.000000000000e+00 2.650000000000e+01 0.000000000000e+00 0.000000000000e+00 0.000000000000e+00
4.900000000000e+01 0.000000000000e+00 2.750000000000e+01 0.000000000000e+00 0.000000000000e+00 0.000000000000e+00
5.000000000000e+01 0.000000000000e+00 2.750000000000e+01 0.000000000000e+00 0.000000000000e+00 0.000000000000e+00
4.900000000000e+01 0.000000000000e+00 2.850000000000e+01 0.000000000000e+00 0.000000000000e+00 0.000000000000e+00
5.000000000000e+01 0.000000000000e+00 2.850000000000e+01 0.000000000000e+00 0.000000000000e+00 0.000000000000e+00
4.900000000000e+01 0.000000000000e+00 2.950000000000e+01 0.000000000000e+00 0.000000000000e+00 0.000000000000e+00
5.000000000000e+01 0.000000000000e+00 2.950000000000e+01 0.000000000000e+00 0.000000000000e+00 0.000000000000e+00
VARIABLES = "X","Y","Z",VELOCITY1_X,VELOCITY1_Y,VELOCITY1_Z
ZONE T="1.797693134862e+308s", 
4.900000000000e+01 0.000000000000e+00 5.000000000000e-01 1.305062098484e-09 -1.318327508659e-11 0.000000000000e+00
5.000000000000e+01 0.000000000000e+00 5.000000000000e-01 1.331427178071e-09 -1.318339516388e-11 0.000000000000e+00
4.900000000000e+01 0.000000000000e+00 1.500000000000e+00 4.296827126210e-08 -4.604181892709e-10 0.000000000000e+00
5.000000000000e+01 0.000000000000e+00 1.500000000000e+00 4.383633771385e-08 -4.604168472699e-10 0.000000000000e+00
4.900000000000e+01 0.000000000000e+00 2.500000000000e+00 4.875941852186e-09 -9.438536734620e-10 0.000000000000e+00
5.000000000000e+01 0.000000000000e+00 2.500000000000e+00 4.974446276846e-09 -9.438522822977e-10 0.000000000000e+00
4.900000000000e+01 0.000000000000e+00 3.500000000000e+00 7.970962730685e-09 -1.073643116881e-09 0.000000000000e+00
5.000000000000e+01 0.000000000000e+00 3.500000000000e+00 8.131985699145e-09 -1.073645347097e-09 0.000000000000e+00
4.900000000000e+01 0.000000000000e+00 4.500000000000e+00 9.317549078650e-10 -1.163589861356e-09 0.000000000000e+00
5.000000000000e+01 0.000000000000e+00 4.500000000000e+00 9.505780797056e-10 -1.163590046852e-09 0.000000000000e+00
4.900000000000e+01 0.000000000000e+00 5.500000000000e+00 1.162596134241e-09 -1.184747245275e-09 0.000000000000e+00
5.000000000000e+01 0.000000000000e+00 5.500000000000e+00 1.186083439828e-09 -1.184746923688e-09 0.000000000000e+00
4.900000000000e+01 0.000000000000e+00 6.500000000000e+00 3.119633576134e-08 -1.511629098973e-09 0.000000000000e+00
5.000000000000e+01 0.000000000000e+00 6.500000000000e+00 3.182656205651e-08 -1.511627158405e-09 0.000000000000e+00
4.900000000000e+01 0.000000000000e+00 7.500000000000e+00 1.757231500006e-08 -2.004373628742e-09 0.000000000000e+00
5.000000000000e+01 0.000000000000e+00 7.500000000000e+00 1.792730861268e-08 -2.004376637581e-09 0.000000000000e+00
4.900000000000e+01 0.000000000000e+00 8.500000000000e+00 7.425291518368e-11 -2.182678841615e-09 0.000000000000e+00
5.000000000000e+01 0.000000000000e+00 8.500000000000e+00 7.575298403570e-11 -2.182678851537e-09 0.000000000000e+00
4.900000000000e+01 0.000000000000e+00 9.500000000000e+00 2.476805385968e-09 -2.208448933368e-09 0.000000000000e+00
5.000000000000e+01 0.000000000000e+00 9.500000000000e+00 2.526842149140e-09 -2.208449241668e-09 0.000000000000e+00
4.900000000000e+01 0.000000000000e+00 1.050000000000e+01 4.448290886636e-11 -2.233924713509e-09 0.000000000000e+00
5.000000000000e+01 0.000000000000e+00 1.050000000000e+01 4.538157167690e-11 -2.233924717018e-09 0.000000000000e+00
4.900000000000e+01 0.000000000000e+00 1.150000000000e+01 6.131370246096e-10 -2.240567934654e-09 0.000000000000e+00
5.000000000000e+01 0.000000000000e+00 1.150000000000e+01 6.255238258215e-10 -2.240567937600e-09 0.000000000000e+00
4.900000000000e+01 0.000000000000e+00 1.250000000000e+01 1.216631813605e-09 -2.259053822196e-09 0.000000000000e+00
5.000000000000e+01 0.000000000000e+00 1.250000000000e+01 1.241210556478e-09 -2.259053526742e-09 0.000000000000e+00
4.900000000000e+01 0.000000000000e+00 1.350000000000e+01 1.420418235486e-09 -2.285696253163e-09 0.000000000000e+00
5.000000000000e+01 0.000000000000e+00 1.350000000000e+01 1.449113184801e-09 -2.285695932015e-09 0.000000000000e+00
4.900000000000e+01 0.000000000000e+00 1.450000000000e+01 1.601581114260e-10 -2.301665907008e-09 0.000000000000e+00
5.000000000000e+01 0.000000000000e+00 1.450000000000e+01 1.633935467367e-10 -2.301665974469e-09 0.000000000000e+00
4.900000000000e+01 0.000000000000e+00 1.550000000000e+01 8.110894605073e-10 -2.311477359197e-09 0.000000000000e+00
5.000000000000e+01 0.000000000000e+00 1.550000000000e+01 8.274752116319e-10 -2.311477536049e-09 0.000000000000e+00
4.900000000000e+01 0.000000000000e+00 1.650000000000e+01 5.501195785803e-08 -2.875380858565e-09 0.000000000000e+00
5.000000000000e+01 0.000000000000e+00 1.650000000000e+01 5.612333634173e-08 -2.875393864390e-09 0.000000000000e+00
4.900000000000e+01 0.000000000000e+00 1.750000000000e+01 2.522660556205e-09 -3.456735879869e-09 0.000000000000e+00
5.000000000000e+01 0.000000000000e+00 1.750000000000e+01 2.573624873967e-09 -3.456735066101e-09 0.000000000000e+00
4.900000000000e+01 0.000000000000e+00 1.850000000000e+01 2.664617283606e-08 -3.751396326995e-09 0.000000000000e+00
5.000000000000e+01 0.000000000000e+00 1.850000000000e+01 2.718448226932e-08 -3.751393928945e-09 0.000000000000e+00
4.900000000000e+01 0.000000000000e+00 1.950000000000e+01 3.162030472215e-09 -4.052579052521e-09 0.000000000000e+00
5.000000000000e+01 0.000000000000e+00 1.950000000000e+01 3.225909920678e-09 -4.052579044924e-09 0.000000000000e+00
4.900000000000e+01 0.000000000000e+00 2.050000000000e+01 8.149548797141e-10 -4.092761087507e-09 0.000000000000e+00
5.000000000000e+01 0.000000000000e+00 2.050000000000e+01 8.314184686743e-10 -4.092761266683e-09 0.000000000000e+00
4.900000000000e+01 0.000000000000e+00 2.150000000000e+01 6.086597036429e-10 -4.107142857659e-09 0.000000000000e+00
5.000000000000e+01 0.000000000000e+00 2.150000000000e+01 6.209557873130e-10 -4.107142922158e-09 0.000000000000e+00
4.900000000000e+01 0.000000000000e+00 2.250000000000e+01 1.791688109384e-10 -4.115102502993e-09 0.000000000000e+00
5.000000000000e+01 0.000000000000e+00 2.250000000000e+01 1.827883564374e-10 -4.115102590467e-09 0.000000000000e+00
4.900000000000e+01 0.000000000000e+00 2.350000000000e+01 3.755445895140e-09 -4.154848074909e-09 0.000000000000e+00
5.000000000000e+01 0.000000000000e+00 2.350000000000e+01 3.831312795167e-09 -4.154848576751e-09 0.000000000000e+00
4.900000000000e+01 0.000000000000e+00 2.450000000000e+01 2.176501620390e-10 -4.194994934995e-09 0.000000000000e+00
5.000000000000e+01 0.000000000000e+00 2.450000000000e+01 2.220470650611e-10 -4.194995007438e-09 0.000000000000e+00
4.900000000000e+01 0.000000000000e+00 2.550000000000e+01 7.421123047931e-08 -4.946854251891e-09 0.000000000000e+00
5.000000000000e+01 0.000000000000e+00 2.550000000000e+01 7.571040724937e-08 -4.946848748933e-09 0.000000000000e+00
4.900000000000e+01 0.000000000000e+00 2.650000000000e+01 1.007625571716e-11 -5.696814658249e-09 0.000000000000e+00
5.000000000000e+01 0.000000000000e+00 2.650000000000e+01 1.027980908806e-11 -5.696814633848e-09 0.000000000000e+00
4.900000000000e+01 0.000000000000e+00 2.750000000000e+01 1.739633128015e-10 -5.698673842037e-09 0.000000000000e+00
5.000000000000e+01 0.000000000000e+00 2.750000000000e+01 1.774778573077e-10 -5.698673792980e-09 0.000000000000e+00
4.900000000000e+01 0.000000000000e+00 2.850000000000e+01 3.339308858728e-09 -5.734165135473e-09 0.000000000000e+00
5.000000000000e+01 0.000000000000e+00 2.850000000000e+01 3.406772162489e-09 -5.734165145447e-09 0.000000000000e+00
4.900000000000e+01 0.000000000000e+00 2.950000000000e+01 8.436859244314e-11 -5.768757851971e-09 0.000000000000e+00
5.000000000000e+01 0.000000000000e+00 2.950000000000e+01 8.607309568513e-11 -5.768757870580e-09 0.000000000000e+00
