VARIABLES = "X","Y","Z",VELOCITY1_X,VELOCITY1_Y,VELOCITY1_Z
ZONE T="0.000000000000e+00s", 
7.490000000000e+02 0.000000000000e+00 5.000000000000e-01 0.000000000000e+00 0.000000000000e+00 0.000000000000e+00
7.500000000000e+02 0.000000000000e+00 5.000000000000e-01 0.000000000000e+00 0.000000000000e+00 0.000000000000e+00
7.490000000000e+02 0.000000000000e+00 1.500000000000e+00 0.000000000000e+00 0.000000000000e+00 0.000000000000e+00
7.500000000000e+02 0.000000000000e+00 1.500000000000e+00 0.000000000000e+00 0.000000000000e+00 0.000000000000e+00
7.490000000000e+02 0.000000000000e+00 2.500000000000e+00 0.000000000000e+00 0.000000000000e+00 0.000000000000e+00
7.500000000000e+02 0.000000000000e+00 2.500000000000e+00 0.000000000000e+00 0.000000000000e+00 0.000000000000e+00
7.490000000000e+02 0.000000000000e+00 3.500000000000e+00 0.000000000000e+00 0.000000000000e+00 0.000000000000e+00
7.500000000000e+02 0.000000000000e+00 3.500000000000e+00 0.000000000000e+00 0.000000000000e+00 0.000000000000e+00
7.490000000000e+02 0.000000000000e+00 4.500000000000e+00 0.000000000000e+00 0.000000000000e+00 0.000000000000e+00
7.500000000000e+02 0.000000000000e+00 4.500000000000e+00 0.000000000000e+00 0.000000000000e+00 0.000000000000e+00
7.490000000000e+02 0.000000000000e+00 5.500000000000e+00 0.000000000000e+00 0.000000000000e+00 0.000000000000e+00
7.500000000000e+02 0.000000000000e+00 5.500000000000e+00 0.000000000000e+00 0.000000000000e+00 0.000000000000e+00
7.490000000000e+02 0.000000000000e+00 6.500000000000e+00 0.000000000000e+00 0.000000000000e+00 0.000000000000e+00
7.500000000000e+02 0.000000000000e+00 6.500000000000e+00 0.000000000000e+00 0.000000000000e+00 0.000000000000e+00
7.490000000000e+02 0.000000000000e+00 7.500000000000e+00 0.000000000000e+00 0.000000000000e+00 0.000000000000e+00
7.500000000000e+02 0.000000000000e+00 7.500000000000e+00 0.000000000000e+00 0.000000000000e+00 0.000000000000e+00
7.490000000000e+02 0.000000000000e+00 8.500000000000e+00 0.000000000000e+00 0.000000000000e+00 0.000000000000e+00
7.500000000000e+02 0.000000000000e+00 8.500000000000e+00 0.000000000000e+00 0.000000000000e+00 0.000000000000e+00
7.490000000000e+02 0.000000000000e+00 9.500000000000e+00 0.000000000000e+00 0.000000000000e+00 0.000000000000e+00
7.500000000000e+02 0.000000000000e+00 9.500000000000e+00 0.000000000000e+00 0.000000000000e+00 0.000000000000e+00
7.490000000000e+02 0.000000000000e+00 1.050000000000e+01 0.000000000000e+00 0.000000000000e+00 0.000000000000e+00
7.500000000000e+02 0.000000000000e+00 1.050000000000e+01 0.000000000000e+00 0.000000000000e+00 0.000000000000e+00
7.490000000000e+02 0.000000000000e+00 1.150000000000e+01 0.000000000000e+00 0.000000000000e+00 0.000000000000e+00
7.500000000000e+02 0.000000000000e+00 1.150000000000e+01 0.000000000000e+00 0.000000000000e+00 0.000000000000e+00
7.490000000000e+02 0.000000000000e+00 1.250000000000e+01 0.000000000000e+00 0.000000000000e+00 0.000000000000e+00
7.500000000000e+02 0.000000000000e+00 1.250000000000e+01 0.000000000000e+00 0.000000000000e+00 0.000000000000e+00
7.490000000000e+02 0.000000000000e+00 1.350000000000e+01 0.000000000000e+00 0.000000000000e+00 0.000000000000e+00
7.500000000000e+02 0.000000000000e+00 1.350000000000e+01 0.000000000000e+00 0.000000000000e+00 0.000000000000e+00
7.490000000000e+02 0.000000000000e+00 1.450000000000e+01 0.000000000000e+00 0.000000000000e+00 0.000000000000e+00
7.500000000000e+02 0.000000000000e+00 1.450000000000e+01 0.000000000000e+00 0.000000000000e+00 0.000000000000e+00
7.490000000000e+02 0.000000000000e+00 1.550000000000e+01 0.000000000000e+00 0.000000000000e+00 0.000000000000e+00
7.500000000000e+02 0.000000000000e+00 1.550000000000e+01 0.000000000000e+00 0.000000000000e+00 0.000000000000e+00
7.490000000000e+02 0.000000000000e+00 1.650000000000e+01 0.000000000000e+00 0.000000000000e+00 0.000000000000e+00
7.500000000000e+02 0.000000000000e+00 1.650000000000e+01 0.000000000000e+00 0.000000000000e+00 0.000000000000e+00
7.490000000000e+02 0.000000000000e+00 1.750000000000e+01 0.000000000000e+00 0.000000000000e+00 0.000000000000e+00
7.500000000000e+02 0.000000000000e+00 1.750000000000e+01 0.000000000000e+00 0.000000000000e+00 0.000000000000e+00
7.490000000000e+02 0.000000000000e+00 1.850000000000e+01 0.000000000000e+00 0.000000000000e+00 0.000000000000e+00
7.500000000000e+02 0.000000000000e+00 1.850000000000e+01 0.000000000000e+00 0.000000000000e+00 0.000000000000e+00
7.490000000000e+02 0.000000000000e+00 1.950000000000e+01 0.000000000000e+00 0.000000000000e+00 0.000000000000e+00
7.500000000000e+02 0.000000000000e+00 1.950000000000e+01 0.000000000000e+00 0.000000000000e+00 0.000000000000e+00
7.490000000000e+02 0.000000000000e+00 2.050000000000e+01 0.000000000000e+00 0.000000000000e+00 0.000000000000e+00
7.500000000000e+02 0.000000000000e+00 2.050000000000e+01 0.000000000000e+00 0.000000000000e+00 0.000000000000e+00
7.490000000000e+02 0.000000000000e+00 2.150000000000e+01 0.000000000000e+00 0.000000000000e+00 0.000000000000e+00
7.500000000000e+02 0.000000000000e+00 2.150000000000e+01 0.000000000000e+00 0.000000000000e+00 0.000000000000e+00
7.490000000000e+02 0.000000000000e+00 2.250000000000e+01 0.000000000000e+00 0.000000000000e+00 0.000000000000e+00
7.500000000000e+02 0.000000000000e+00 2.250000000000e+01 0.000000000000e+00 0.000000000000e+00 0.000000000000e+00
7.490000000000e+02 0.000000000000e+00 2.350000000000e+01 0.000000000000e+00 0.000000000000e+00 0.000000000000e+00
7.500000000000e+02 0.000000000000e+00 2.350000000000e+01 0.000000000000e+00 0.000000000000e+00 0.000000000000e+00
7.490000000000e+02 0.000000000000e+00 2.450000000000e+01 0.000000000000e+00 0.000000000000e+00 0.000000000000e+00
7.500000000000e+02 0.000000000000e+00 2.450000000000e+01 0.000000000000e+00 0.000000000000e+00 0.000000000000e+00
7.490000000000e+02 0.000000000000e+00 2.550000000000e+01 0.000000000000e+00 0.000000000000e+00 0.000000000000e+00
7.500000000000e+02 0.000000000000e+00 2.550000000000e+01 0.000000000000e+00 0.000000000000e+00 0.000000000000e+00
7.490000000000e+02 0.000000000000e+00 2.650000000000e+01 0.000000000000e+00 0.000000000000e+00 0.000000000000e+00
7.500000000000e+02 0.000000000000e+00 2.650000000000e+01 0.000000000000e+00 0.000000000000e+00 0.000000000000e+00
7.490000000000e+02 0.000000000000e+00 2.750000000000e+01 0.000000000000e+00 0.000000000000e+00 0.000000000000e+00
7.500000000000e+02 0.000000000000e+00 2.750000000000e+01 0.000000000000e+00 0.000000000000e+00 0.000000000000e+00
7.490000000000e+02 0.000000000000e+00 2.850000000000e+01 0.000000000000e+00 0.000000000000e+00 0.000000000000e+00
7.500000000000e+02 0.000000000000e+00 2.850000000000e+01 0.000000000000e+00 0.000000000000e+00 0.000000000000e+00
7.490000000000e+02 0.000000000000e+00 2.950000000000e+01 0.000000000000e+00 0.000000000000e+00 0.000000000000e+00
7.500000000000e+02 0.000000000000e+00 2.950000000000e+01 0.000000000000e+00 0.000000000000e+00 0.000000000000e+00
VARIABLES = "X","Y","Z",VELOCITY1_X,VELOCITY1_Y,VELOCITY1_Z
ZONE T="1.797693134862e+308s", 
7.490000000000e+02 0.000000000000e+00 5.000000000000e-01 1.973458473231e-08 -1.293221263243e-11 0.000000000000e+00
7.500000000000e+02 0.000000000000e+00 5.000000000000e-01 1.976044142789e-08 -1.292802857032e-11 0.000000000000e+00
7.490000000000e+02 0.000000000000e+00 1.500000000000e+00 6.497478319075e-07 -4.516549393780e-10 0.000000000000e+00
7.500000000000e+02 0.000000000000e+00 1.500000000000e+00 6.505991511470e-07 -4.515040633095e-10 0.000000000000e+00
7.490000000000e+02 0.000000000000e+00 2.500000000000e+00 7.373195137155e-08 -9.257568084083e-10 0.000000000000e+00
7.500000000000e+02 0.000000000000e+00 2.500000000000e+00 7.382855777300e-08 -9.254448868376e-10 0.000000000000e+00
7.490000000000e+02 0.000000000000e+00 3.500000000000e+00 1.205340135403e-07 -1.053065754238e-09 0.000000000000e+00
7.500000000000e+02 0.000000000000e+00 3.500000000000e+00 1.206919494642e-07 -1.052710535498e-09 0.000000000000e+00
7.490000000000e+02 0.000000000000e+00 4.500000000000e+00 1.408974516913e-08 -1.141293325576e-09 0.000000000000e+00
7.500000000000e+02 0.000000000000e+00 4.500000000000e+00 1.410820807001e-08 -1.140910680392e-09 0.000000000000e+00
7.490000000000e+02 0.000000000000e+00 5.500000000000e+00 1.758093398464e-08 -1.162056437085e-09 0.000000000000e+00
7.500000000000e+02 0.000000000000e+00 5.500000000000e+00 1.760397931419e-08 -1.161667035901e-09 0.000000000000e+00
7.490000000000e+02 0.000000000000e+00 6.500000000000e+00 4.717643169133e-07 -1.482946849179e-09 0.000000000000e+00
7.500000000000e+02 0.000000000000e+00 6.500000000000e+00 4.723828648165e-07 -1.482448852392e-09 0.000000000000e+00
7.490000000000e+02 0.000000000000e+00 7.500000000000e+00 2.657363658694e-07 -1.966569891905e-09 0.000000000000e+00
7.500000000000e+02 0.000000000000e+00 7.500000000000e+00 2.660847797113e-07 -1.965917707586e-09 0.000000000000e+00
7.490000000000e+02 0.000000000000e+00 8.500000000000e+00 1.122967682362e-09 -2.141567522530e-09 0.000000000000e+00
7.500000000000e+02 0.000000000000e+00 8.500000000000e+00 1.124441322845e-09 -2.140861671110e-09 0.000000000000e+00
7.490000000000e+02 0.000000000000e+00 9.500000000000e+00 3.747902586059e-08 -2.167070904734e-09 0.000000000000e+00
7.500000000000e+02 0.000000000000e+00 9.500000000000e+00 3.752854095622e-08 -2.166360175917e-09 0.000000000000e+00
7.490000000000e+02 0.000000000000e+00 1.050000000000e+01 6.732073338235e-10 -2.192282497962e-09 0.000000000000e+00
7.500000000000e+02 0.000000000000e+00 1.050000000000e+01 6.740981832316e-10 -2.191567477261e-09 0.000000000000e+00
7.490000000000e+02 0.000000000000e+00 1.150000000000e+01 9.288065882534e-09 -2.198947510000e-09 0.000000000000e+00
7.500000000000e+02 0.000000000000e+00 1.150000000000e+01 9.300496173867e-09 -2.198232841977e-09 0.000000000000e+00
7.490000000000e+02 0.000000000000e+00 1.250000000000e+01 1.843140257092e-08 -2.217510354292e-09 0.000000000000e+00
7.500000000000e+02 0.000000000000e+00 1.250000000000e+01 1.845609051224e-08 -2.216796880605e-09 0.000000000000e+00
7.490000000000e+02 0.000000000000e+00 1.350000000000e+01 2.151948274369e-08 -2.244275939368e-09 0.000000000000e+00
7.500000000000e+02 0.000000000000e+00 1.350000000000e+01 2.154831982693e-08 -2.243564648928e-09 0.000000000000e+00
7.490000000000e+02 0.000000000000e+00 1.450000000000e+01 2.426562351534e-09 -2.260325278303e-09 0.000000000000e+00
7.500000000000e+02 0.000000000000e+00 1.450000000000e+01 2.429816464717e-09 -2.259615263634e-09 0.000000000000e+00
7.490000000000e+02 0.000000000000e+00 1.550000000000e+01 1.229212069110e-08 -2.270223694541e-09 0.000000000000e+00
7.500000000000e+02 0.000000000000e+00 1.550000000000e+01 1.230865647434e-08 -2.269515128369e-09 0.000000000000e+00
7.490000000000e+02 0.000000000000e+00 1.650000000000e+01 8.337531291893e-07 -2.839553368968e-09 0.000000000000e+00
7.500000000000e+02 0.000000000000e+00 1.650000000000e+01 8.348753924214e-07 -2.838940305606e-09 0.000000000000e+00
7.490000000000e+02 0.000000000000e+00 1.750000000000e+01 3.823316274003e-08 -3.426345327456e-09 0.000000000000e+00
7.500000000000e+02 0.000000000000e+00 1.750000000000e+01 3.828462784255e-08 -3.425820633672e-09 0.000000000000e+00
7.490000000000e+02 0.000000000000e+00 1.850000000000e+01 4.038512521221e-07 -3.723890932614e-09 0.000000000000e+00
7.500000000000e+02 0.000000000000e+00 1.850000000000e+01 4.043949499182e-07 -3.723409732692e-09 0.000000000000e+00
7.490000000000e+02 0.000000000000e+00 1.950000000000e+01 4.792404865581e-08 -4.027958073640e-09 0.000000000000e+00
7.500000000000e+02 0.000000000000e+00 1.950000000000e+01 4.798856840600e-08 -4.027530041381e-09 0.000000000000e+00
7.490000000000e+02 0.000000000000e+00 2.050000000000e+01 1.235168232023e-08 -4.068530309768e-09 0.000000000000e+00
7.500000000000e+02 0.000000000000e+00 2.050000000000e+01 1.236831375401e-08 -4.068109479390e-09 0.000000000000e+00
7.490000000000e+02 0.000000000000e+00 2.150000000000e+01 9.225342704513e-09 -4.083060345053e-09 0.000000000000e+00
7.500000000000e+02 0.000000000000e+00 2.150000000000e+01 9.237770032067e-09 -4.082642050878e-09 0.000000000000e+00
7.490000000000e+02 0.000000000000e+00 2.250000000000e+01 2.715784883623e-09 -4.091106252807e-09 0.000000000000e+00
7.500000000000e+02 0.000000000000e+00 2.250000000000e+01 2.719445796669e-09 -4.090689508649e-09 0.000000000000e+00
7.490000000000e+02 0.000000000000e+00 2.350000000000e+01 5.693168236949e-08 -4.131367197542e-09 0.000000000000e+00
7.500000000000e+02 0.000000000000e+00 2.350000000000e+01 5.700855429188e-08 -4.130959694792e-09 0.000000000000e+00
7.490000000000e+02 0.000000000000e+00 2.450000000000e+01 3.299591858074e-09 -4.172026654654e-09 0.000000000000e+00
7.500000000000e+02 0.000000000000e+00 2.450000000000e+01 3.304048245673e-09 -4.171627639709e-09 0.000000000000e+00
7.490000000000e+02 0.000000000000e+00 2.550000000000e+01 1.125168302068e-06 -4.934870079555e-09 0.000000000000e+00
7.500000000000e+02 0.000000000000e+00 2.550000000000e+01 1.126689890822e-06 -4.934667188063e-09 0.000000000000e+00
7.490000000000e+02 0.000000000000e+00 2.650000000000e+01 1.527755497255e-10 -5.695608376331e-09 0.000000000000e+00
7.500000000000e+02 0.000000000000e+00 2.650000000000e+01 1.529821937879e-10 -5.695586778320e-09 0.000000000000e+00
7.490000000000e+02 0.000000000000e+00 2.750000000000e+01 2.637947937960e-09 -5.697498329394e-09 0.000000000000e+00
7.500000000000e+02 0.000000000000e+00 2.750000000000e+01 2.641521856743e-09 -5.697477272579e-09 0.000000000000e+00
7.490000000000e+02 0.000000000000e+00 2.850000000000e+01 5.063701660530e-08 -5.733580809413e-09 0.000000000000e+00
7.500000000000e+02 0.000000000000e+00 2.850000000000e+01 5.070562667215e-08 -5.733570596583e-09 0.000000000000e+00
7.490000000000e+02 0.000000000000e+00 2.950000000000e+01 1.279359021103e-09 -5.768743785948e-09 0.000000000000e+00
7.500000000000e+02 0.000000000000e+00 2.950000000000e+01 1.281092499746e-09 -5.768743547349e-09 0.000000000000e+00
