VARIABLES = "X","Y","Z",VELOCITY1_X,VELOCITY1_Y,VELOCITY1_Z
ZONE T="0.000000000000e+00s", 
4.990000000000e+02 0.000000000000e+00 5.000000000000e-01 0.000000000000e+00 0.000000000000e+00 0.000000000000e+00
5.000000000000e+02 0.000000000000e+00 5.000000000000e-01 0.000000000000e+00 0.000000000000e+00 0.000000000000e+00
4.990000000000e+02 0.000000000000e+00 1.500000000000e+00 0.000000000000e+00 0.000000000000e+00 0.000000000000e+00
5.000000000000e+02 0.000000000000e+00 1.500000000000e+00 0.000000000000e+00 0.000000000000e+00 0.000000000000e+00
4.990000000000e+02 0.000000000000e+00 2.500000000000e+00 0.000000000000e+00 0.000000000000e+00 0.000000000000e+00
5.000000000000e+02 0.000000000000e+00 2.500000000000e+00 0.000000000000e+00 0.000000000000e+00 0.000000000000e+00
4.990000000000e+02 0.000000000000e+00 3.500000000000e+00 0.000000000000e+00 0.000000000000e+00 0.000000000000e+00
5.000000000000e+02 0.000000000000e+00 3.500000000000e+00 0.000000000000e+00 0.000000000000e+00 0.000000000000e+00
4.990000000000e+02 0.000000000000e+00 4.500000000000e+00 0.000000000000e+00 0.000000000000e+00 0.000000000000e+00
5.000000000000e+02 0.000000000000e+00 4.500000000000e+00 0.000000000000e+00 0.000000000000e+00 0.000000000000e+00
4.990000000000e+02 0.000000000000e+00 5.500000000000e+00 0.000000000000e+00 0.000000000000e+00 0.000000000000e+00
5.000000000000e+02 0.000000000000e+00 5.500000000000e+00 0.000000000000e+00 0.000000000000e+00 0.000000000000e+00
4.990000000000e+02 0.000000000000e+00 6.500000000000e+00 0.000000000000e+00 0.000000000000e+00 0.000000000000e+00
5.000000000000e+02 0.000000000000e+00 6.500000000000e+00 0.000000000000e+00 0.000000000000e+00 0.000000000000e+00
4.990000000000e+02 0.000000000000e+00 7.500000000000e+00 0.000000000000e+00 0.000000000000e+00 0.000000000000e+00
5.000000000000e+02 0.000000000000e+00 7.500000000000e+00 0.000000000000e+00 0.000000000000e+00 0.000000000000e+00
4.990000000000e+02 0.000000000000e+00 8.500000000000e+00 0.000000000000e+00 0.000000000000e+00 0.000000000000e+00
5.000000000000e+02 0.000000000000e+00 8.500000000000e+00 0.000000000000e+00 0.000000000000e+00 0.000000000000e+00
4.990000000000e+02 0.000000000000e+00 9.500000000000e+00 0.000000000000e+00 0.000000000000e+00 0.000000000000e+00
5.000000000000e+02 0.000000000000e+00 9.500000000000e+00 0.000000000000e+00 0.000000000000e+00 0.000000000000e+00
4.990000000000e+02 0.000000000000e+00 1.050000000000e+01 0.000000000000e+00 0.000000000000e+00 0.000000000000e+00
5.000000000000e+02 0.000000000000e+00 1.050000000000e+01 0.000000000000e+00 0.000000000000e+00 0.000000000000e+00
4.990000000000e+02 0.000000000000e+00 1.150000000000e+01 0.000000000000e+00 0.000000000000e+00 0.000000000000e+00
5.000000000000e+02 0.000000000000e+00 1.150000000000e+01 0.000000000000e+00 0.000000000000e+00 0.000000000000e+00
4.990000000000e+02 0.000000000000e+00 1.250000000000e+01 0.000000000000e+00 0.000000000000e+00 0.000000000000e+00
5.000000000000e+02 0.000000000000e+00 1.250000000000e+01 0.000000000000e+00 0.000000000000e+00 0.000000000000e+00
4.990000000000e+02 0.000000000000e+00 1.350000000000e+01 0.000000000000e+00 0.000000000000e+00 0.000000000000e+00
5.000000000000e+02 0.000000000000e+00 1.350000000000e+01 0.000000000000e+00 0.000000000000e+00 0.000000000000e+00
4.990000000000e+02 0.000000000000e+00 1.450000000000e+01 0.000000000000e+00 0.000000000000e+00 0.000000000000e+00
5.000000000000e+02 0.000000000000e+00 1.450000000000e+01 0.000000000000e+00 0.000000000000e+00 0.000000000000e+00
4.990000000000e+02 0.000000000000e+00 1.550000000000e+01 0.000000000000e+00 0.000000000000e+00 0.000000000000e+00
5.000000000000e+02 0.000000000000e+00 1.550000000000e+01 0.000000000000e+00 0.000000000000e+00 0.000000000000e+00
4.990000000000e+02 0.000000000000e+00 1.650000000000e+01 0.000000000000e+00 0.000000000000e+00 0.000000000000e+00
5.000000000000e+02 0.000000000000e+00 1.650000000000e+01 0.000000000000e+00 0.000000000000e+00 0.000000000000e+00
4.990000000000e+02 0.000000000000e+00 1.750000000000e+01 0.000000000000e+00 0.000000000000e+00 0.000000000000e+00
5.000000000000e+02 0.000000000000e+00 1.750000000000e+01 0.000000000000e+00 0.000000000000e+00 0.000000000000e+00
4.990000000000e+02 0.000000000000e+00 1.850000000000e+01 0.000000000000e+00 0.000000000000e+00 0.000000000000e+00
5.000000000000e+02 0.000000000000e+00 1.850000000000e+01 0.000000000000e+00 0.000000000000e+00 0.000000000000e+00
4.990000000000e+02 0.000000000000e+00 1.950000000000e+01 0.000000000000e+00 0.000000000000e+00 0.000000000000e+00
5.000000000000e+02 0.000000000000e+00 1.950000000000e+01 0.000000000000e+00 0.000000000000e+00 0.000000000000e+00
4.990000000000e+02 0.000000000000e+00 2.050000000000e+01 0.000000000000e+00 0.000000000000e+00 0.000000000000e+00
5.000000000000e+02 0.000000000000e+00 2.050000000000e+01 0.000000000000e+00 0.000000000000e+00 0.000000000000e+00
4.990000000000e+02 0.000000000000e+00 2.150000000000e+01 0.000000000000e+00 0.000000000000e+00 0.000000000000e+00
5.000000000000e+02 0.000000000000e+00 2.150000000000e+01 0.000000000000e+00 0.000000000000e+00 0.000000000000e+00
4.990000000000e+02 0.000000000000e+00 2.250000000000e+01 0.000000000000e+00 0.000000000000e+00 0.000000000000e+00
5.000000000000e+02 0.000000000000e+00 2.250000000000e+01 0.000000000000e+00 0.000000000000e+00 0.000000000000e+00
4.990000000000e+02 0.000000000000e+00 2.350000000000e+01 0.000000000000e+00 0.000000000000e+00 0.000000000000e+00
5.000000000000e+02 0.000000000000e+00 2.350000000000e+01 0.000000000000e+00 0.000000000000e+00 0.000000000000e+00
4.990000000000e+02 0.000000000000e+00 2.450000000000e+01 0.000000000000e+00 0.000000000000e+00 0.000000000000e+00
5.000000000000e+02 0.000000000000e+00 2.450000000000e+01 0.000000000000e+00 0.000000000000e+00 0.000000000000e+00
4.990000000000e+02 0.000000000000e+00 2.550000000000e+01 0.000000000000e+00 0.000000000000e+00 0.000000000000e+00
5.000000000000e+02 0.000000000000e+00 2.550000000000e+01 0.000000000000e+00 0.000000000000e+00 0.000000000000e+00
4.990000000000e+02 0.000000000000e+00 2.650000000000e+01 0.000000000000e+00 0.000000000000e+00 0.000000000000e+00
5.000000000000e+02 0.000000000000e+00 2.650000000000e+01 0.000000000000e+00 0.000000000000e+00 0.000000000000e+00
4.990000000000e+02 0.000000000000e+00 2.750000000000e+01 0.000000000000e+00 0.000000000000e+00 0.000000000000e+00
5.000000000000e+02 0.000000000000e+00 2.750000000000e+01 0.000000000000e+00 0.000000000000e+00 0.000000000000e+00
4.990000000000e+02 0.000000000000e+00 2.850000000000e+01 0.000000000000e+00 0.000000000000e+00 0.000000000000e+00
5.000000000000e+02 0.000000000000e+00 2.850000000000e+01 0.000000000000e+00 0.000000000000e+00 0.000000000000e+00
4.990000000000e+02 0.000000000000e+00 2.950000000000e+01 0.000000000000e+00 0.000000000000e+00 0.000000000000e+00
5.000000000000e+02 0.000000000000e+00 2.950000000000e+01 0.000000000000e+00 0.000000000000e+00 0.000000000000e+00
VARIABLES = "X","Y","Z",VELOCITY1_X,VELOCITY1_Y,VELOCITY1_Z
ZONE T="1.797693134862e+308s", 
4.990000000000e+02 0.000000000000e+00 5.000000000000e-01 1.317099601246e-08 -1.318295180159e-11 0.000000000000e+00
5.000000000000e+02 0.000000000000e+00 5.000000000000e-01 1.319736344064e-08 -1.318289655078e-11 0.000000000000e+00
4.990000000000e+02 0.000000000000e+00 1.500000000000e+00 4.336460280851e-07 -4.603938965415e-10 0.000000000000e+00
5.000000000000e+02 0.000000000000e+00 1.500000000000e+00 4.345141664208e-07 -4.603958216573e-10 0.000000000000e+00
4.990000000000e+02 0.000000000000e+00 2.500000000000e+00 4.920916198068e-08 -9.435915808371e-10 0.000000000000e+00
5.000000000000e+02 0.000000000000e+00 2.500000000000e+00 4.930767593564e-08 -9.435868124427e-10 0.000000000000e+00
4.990000000000e+02 0.000000000000e+00 3.500000000000e+00 8.044482872567e-08 -1.073356358896e-09 0.000000000000e+00
5.000000000000e+02 0.000000000000e+00 3.500000000000e+00 8.060586861471e-08 -1.073352623581e-09 0.000000000000e+00
4.990000000000e+02 0.000000000000e+00 4.500000000000e+00 9.403493670087e-09 -1.163274624414e-09 0.000000000000e+00
5.000000000000e+02 0.000000000000e+00 4.500000000000e+00 9.422318319858e-09 -1.163269223684e-09 0.000000000000e+00
4.990000000000e+02 0.000000000000e+00 5.500000000000e+00 1.173320768262e-08 -1.184429182419e-09 0.000000000000e+00
5.000000000000e+02 0.000000000000e+00 5.500000000000e+00 1.175669680604e-08 -1.184423355958e-09 0.000000000000e+00
4.990000000000e+02 0.000000000000e+00 6.500000000000e+00 3.148411744670e-07 -1.511294537323e-09 0.000000000000e+00
5.000000000000e+02 0.000000000000e+00 6.500000000000e+00 3.154714732605e-07 -1.511297168637e-09 0.000000000000e+00
4.990000000000e+02 0.000000000000e+00 7.500000000000e+00 1.773441622148e-07 -2.003853495585e-09 0.000000000000e+00
5.000000000000e+02 0.000000000000e+00 7.500000000000e+00 1.776992050954e-07 -2.003841708970e-09 0.000000000000e+00
4.990000000000e+02 0.000000000000e+00 8.500000000000e+00 7.493801636770e-10 -2.182077251301e-09 0.000000000000e+00
5.000000000000e+02 0.000000000000e+00 8.500000000000e+00 7.508803774790e-10 -2.182067263921e-09 0.000000000000e+00
4.990000000000e+02 0.000000000000e+00 9.500000000000e+00 2.499687787099e-08 -2.207849767762e-09 0.000000000000e+00
5.000000000000e+02 0.000000000000e+00 9.500000000000e+00 2.504692520030e-08 -2.207839794079e-09 0.000000000000e+00
4.990000000000e+02 0.000000000000e+00 1.050000000000e+01 4.489400839798e-10 -2.233316331818e-09 0.000000000000e+00
5.000000000000e+02 0.000000000000e+00 1.050000000000e+01 4.498389546791e-10 -2.233306215759e-09 0.000000000000e+00
4.990000000000e+02 0.000000000000e+00 1.150000000000e+01 6.188159760491e-09 -2.239961321666e-09 0.000000000000e+00
5.000000000000e+02 0.000000000000e+00 1.150000000000e+01 6.200551749807e-09 -2.239951208340e-09 0.000000000000e+00
4.990000000000e+02 0.000000000000e+00 1.250000000000e+01 1.227902261079e-08 -2.258448866542e-09 0.000000000000e+00
5.000000000000e+02 0.000000000000e+00 1.250000000000e+01 1.230361236231e-08 -2.258438712304e-09 0.000000000000e+00
4.990000000000e+02 0.000000000000e+00 1.350000000000e+01 1.433577226556e-08 -2.285092675329e-09 0.000000000000e+00
5.000000000000e+02 0.000000000000e+00 1.350000000000e+01 1.436448090232e-08 -2.285082338190e-09 0.000000000000e+00
4.990000000000e+02 0.000000000000e+00 1.450000000000e+01 1.616420308622e-09 -2.301061443844e-09 0.000000000000e+00
5.000000000000e+02 0.000000000000e+00 1.450000000000e+01 1.619657277953e-09 -2.301051385180e-09 0.000000000000e+00
4.990000000000e+02 0.000000000000e+00 1.550000000000e+01 8.186094885671e-09 -2.310876052687e-09 0.000000000000e+00
5.000000000000e+02 0.000000000000e+00 1.550000000000e+01 8.202488669253e-09 -2.310866087578e-09 0.000000000000e+00
4.990000000000e+02 0.000000000000e+00 1.650000000000e+01 5.552207607958e-07 -2.874990019420e-09 0.000000000000e+00
5.000000000000e+02 0.000000000000e+00 1.650000000000e+01 5.563326842556e-07 -2.874992909207e-09 0.000000000000e+00
4.990000000000e+02 0.000000000000e+00 1.750000000000e+01 2.546053377174e-08 -3.456291455418e-09 0.000000000000e+00
5.000000000000e+02 0.000000000000e+00 1.750000000000e+01 2.551152345130e-08 -3.456283794730e-09 0.000000000000e+00
4.990000000000e+02 0.000000000000e+00 1.850000000000e+01 2.689326274114e-07 -3.751055008095e-09 0.000000000000e+00
5.000000000000e+02 0.000000000000e+00 1.850000000000e+01 2.694712135594e-07 -3.751044985079e-09 0.000000000000e+00
4.990000000000e+02 0.000000000000e+00 1.950000000000e+01 3.191351866644e-08 -4.052224225001e-09 0.000000000000e+00
5.000000000000e+02 0.000000000000e+00 1.950000000000e+01 3.197743085872e-08 -4.052217863442e-09 0.000000000000e+00
4.990000000000e+02 0.000000000000e+00 2.050000000000e+01 8.225121387691e-09 -4.092409072570e-09 0.000000000000e+00
5.000000000000e+02 0.000000000000e+00 2.050000000000e+01 8.241593395562e-09 -4.092403428306e-09 0.000000000000e+00
4.990000000000e+02 0.000000000000e+00 2.150000000000e+01 6.143045104502e-09 -4.106795343688e-09 0.000000000000e+00
5.000000000000e+02 0.000000000000e+00 2.150000000000e+01 6.155347550584e-09 -4.106789552902e-09 0.000000000000e+00
4.990000000000e+02 0.000000000000e+00 2.250000000000e+01 1.808306943871e-09 -4.114756162691e-09 0.000000000000e+00
5.000000000000e+02 0.000000000000e+00 2.250000000000e+01 1.811928395357e-09 -4.114750290913e-09 0.000000000000e+00
4.990000000000e+02 0.000000000000e+00 2.350000000000e+01 3.790292242200e-08 -4.154518213352e-09 0.000000000000e+00
5.000000000000e+02 0.000000000000e+00 2.350000000000e+01 3.797883029146e-08 -4.154513560947e-09 0.000000000000e+00
4.990000000000e+02 0.000000000000e+00 2.450000000000e+01 2.196698292732e-09 -4.194662872466e-09 0.000000000000e+00
5.000000000000e+02 0.000000000000e+00 2.450000000000e+01 2.201097648853e-09 -4.194657335135e-09 0.000000000000e+00
4.990000000000e+02 0.000000000000e+00 2.550000000000e+01 7.490005453778e-07 -4.946867281665e-09 0.000000000000e+00
5.000000000000e+02 0.000000000000e+00 2.550000000000e+01 7.505006128014e-07 -4.946851317301e-09 0.000000000000e+00
4.990000000000e+02 0.000000000000e+00 2.650000000000e+01 1.016978241725e-10 -5.696797402960e-09 0.000000000000e+00
5.000000000000e+02 0.000000000000e+00 2.650000000000e+01 1.019014980401e-10 -5.696797140853e-09 0.000000000000e+00
4.990000000000e+02 0.000000000000e+00 2.750000000000e+01 1.755780723091e-09 -5.698657344808e-09 0.000000000000e+00
5.000000000000e+02 0.000000000000e+00 2.750000000000e+01 1.759297161497e-09 -5.698657088845e-09 0.000000000000e+00
4.990000000000e+02 0.000000000000e+00 2.850000000000e+01 3.370304531100e-08 -5.734163205918e-09 0.000000000000e+00
5.000000000000e+02 0.000000000000e+00 2.850000000000e+01 3.377054508994e-08 -5.734162852488e-09 0.000000000000e+00
4.990000000000e+02 0.000000000000e+00 2.950000000000e+01 8.515171307046e-10 -5.768757788555e-09 0.000000000000e+00
5.000000000000e+02 0.000000000000e+00 2.950000000000e+01 8.532225188601e-10 -5.768757774810e-09 0.000000000000e+00
