VARIABLES = "Time","Value"
ZONE T=obs_00750
0.000000000000e+00 0.000000000000e+00
1.797693134862e+308 4.324318605239e-06
