 TITLE = "Profiles along polylines"
 VARIABLES = "DIST" "SATURATION1" 
 ZONE T="TIME=0.000000000000e+00"
0.000000000000e+00 1.000000000000e+00 
4.228329442654e-01 1.000000000000e+00 
8.414375614044e-01 1.000000000000e+00 
1.255856131274e+00 1.000000000000e+00 
1.666130515293e+00 1.000000000000e+00 
2.072302156946e+00 1.000000000000e+00 
2.474412082368e+00 1.000000000000e+00 
2.872500908616e+00 1.000000000000e+00 
3.266608846629e+00 1.000000000000e+00 
3.656775704110e+00 1.000000000000e+00 
4.043040890969e+00 1.000000000000e+00 
4.425443427261e+00 1.000000000000e+00 
4.804021937899e+00 1.000000000000e+00 
5.178814663244e+00 1.000000000000e+00 
5.549859461389e+00 1.000000000000e+00 
5.917193810761e+00 1.000000000000e+00 
6.280854817522e+00 1.000000000000e+00 
6.640879212698e+00 1.000000000000e+00 
6.997303364810e+00 1.000000000000e+00 
7.350163276670e+00 1.000000000000e+00 
7.699494590141e+00 1.000000000000e+00 
8.045332590632e+00 1.000000000000e+00 
8.387712209067e+00 1.000000000000e+00 
8.726668031512e+00 1.000000000000e+00 
9.062234295644e+00 1.000000000000e+00 
9.394444897751e+00 1.000000000000e+00 
9.723333394234e+00 1.000000000000e+00 
1.004893300589e+01 1.000000000000e+00 
1.037127662187e+01 1.000000000000e+00 
1.069039680122e+01 1.000000000000e+00 
1.100632577934e+01 1.000000000000e+00 
1.131909546669e+01 1.000000000000e+00 
1.162873745788e+01 1.000000000000e+00 
1.193528303009e+01 1.000000000000e+00 
1.223876314429e+01 1.000000000000e+00 
1.253920845666e+01 1.000000000000e+00 
1.283664931687e+01 1.000000000000e+00 
1.313111576906e+01 1.000000000000e+00 
1.342263755783e+01 1.000000000000e+00 
1.371124412909e+01 1.000000000000e+00 
1.399696463333e+01 1.000000000000e+00 
1.427982793156e+01 1.000000000000e+00 
1.455986259584e+01 1.000000000000e+00 
1.483709691247e+01 1.000000000000e+00 
1.511155888769e+01 1.000000000000e+00 
1.538327624542e+01 1.000000000000e+00 
1.565227643033e+01 1.000000000000e+00 
1.591858661336e+01 1.000000000000e+00 
1.618223369197e+01 1.000000000000e+00 
1.644324429822e+01 1.000000000000e+00 
1.670164479881e+01 1.000000000000e+00 
1.695746129524e+01 1.000000000000e+00 
1.721071962643e+01 1.000000000000e+00 
1.746144537402e+01 1.000000000000e+00 
1.770966386479e+01 1.000000000000e+00 
1.795540017062e+01 1.000000000000e+00 
1.819867911356e+01 1.000000000000e+00 
1.843952526816e+01 1.000000000000e+00 
1.867796296125e+01 1.000000000000e+00 
1.891401627686e+01 1.000000000000e+00 
1.914770905841e+01 1.000000000000e+00 
1.937906491098e+01 1.000000000000e+00 
1.960810720601e+01 1.000000000000e+00 
1.983485907816e+01 1.000000000000e+00 
2.005934343268e+01 1.000000000000e+00 
2.028158294467e+01 1.000000000000e+00 
2.050160006120e+01 1.000000000000e+00 
2.071941700570e+01 1.000000000000e+00 
2.093505577995e+01 1.000000000000e+00 
2.114853816581e+01 1.000000000000e+00 
2.135988572703e+01 1.000000000000e+00 
2.156911981364e+01 1.000000000000e+00 
2.177626156092e+01 1.000000000000e+00 
2.198133189116e+01 1.000000000000e+00 
2.218435151784e+01 1.000000000000e+00 
2.238534094724e+01 1.000000000000e+00 
2.258432048250e+01 1.000000000000e+00 
2.278131022253e+01 1.000000000000e+00 
2.297633006606e+01 1.000000000000e+00 
2.316939971304e+01 1.000000000000e+00 
2.336053866346e+01 1.000000000000e+00 
2.354976622364e+01 1.000000000000e+00 
2.373710150789e+01 1.000000000000e+00 
2.392256343949e+01 1.000000000000e+00 
2.410617075196e+01 1.000000000000e+00 
2.428794199023e+01 1.000000000000e+00 
2.446789551442e+01 1.000000000000e+00 
2.464604950347e+01 1.000000000000e+00 
2.482242195364e+01 1.000000000000e+00 
2.499703067945e+01 1.000000000000e+00 
2.516989331736e+01 1.000000000000e+00 
2.534102732932e+01 1.000000000000e+00 
2.551045000099e+01 1.000000000000e+00 
2.567817844532e+01 1.000000000000e+00 
2.584422960594e+01 1.000000000000e+00 
2.600862025536e+01 1.000000000000e+00 
2.617136699839e+01 1.000000000000e+00 
2.633248627282e+01 1.000000000000e+00 
2.649199435544e+01 1.000000000000e+00 
2.664990735733e+01 1.000000000000e+00 
2.680624122730e+01 1.000000000000e+00 
2.696101176021e+01 1.000000000000e+00 
2.711423458968e+01 1.000000000000e+00 
2.726592519133e+01 1.000000000000e+00 
2.741609888585e+01 1.000000000000e+00 
2.756477084217e+01 1.000000000000e+00 
2.771195607779e+01 1.000000000000e+00 
2.785766946191e+01 1.000000000000e+00 
2.800192571308e+01 1.000000000000e+00 
2.814473939969e+01 1.000000000000e+00 
2.828612495072e+01 1.000000000000e+00 
2.842609664807e+01 1.000000000000e+00 
2.856466862699e+01 1.000000000000e+00 
2.870185488672e+01 1.000000000000e+00 
2.883766928542e+01 1.000000000000e+00 
2.897212553780e+01 1.000000000000e+00 
2.910523722576e+01 1.000000000000e+00 
2.923701779842e+01 1.000000000000e+00 
2.936748056702e+01 1.000000000000e+00 
2.949663870762e+01 1.000000000000e+00 
2.962450526641e+01 1.000000000000e+00 
2.975109315967e+01 1.000000000000e+00 
2.987641517381e+01 1.000000000000e+00 
3.000048396790e+01 1.000000000000e+00 
3.012331207364e+01 1.000000000000e+00 
3.024491189790e+01 1.000000000000e+00 
3.036529572520e+01 1.000000000000e+00 
3.048447571493e+01 1.000000000000e+00 
3.060246390389e+01 1.000000000000e+00 
3.071927221125e+01 1.000000000000e+00 
3.083491243578e+01 1.000000000000e+00 
3.094939625820e+01 1.000000000000e+00 
3.106273524093e+01 1.000000000000e+00 
3.117494083309e+01 1.000000000000e+00 
3.128602437007e+01 1.000000000000e+00 
3.139599707071e+01 1.000000000000e+00 
3.150487004474e+01 1.000000000000e+00 
3.161265428979e+01 1.000000000000e+00 
3.171936069098e+01 1.000000000000e+00 
3.182500002845e+01 1.000000000000e+00 
3.192958297412e+01 1.000000000000e+00 
3.203312008878e+01 1.000000000000e+00 
3.213562183203e+01 1.000000000000e+00 
3.223709855906e+01 1.000000000000e+00 
3.233756051763e+01 1.000000000000e+00 
3.243701785798e+01 1.000000000000e+00 
3.253548062687e+01 1.000000000000e+00 
3.263295876722e+01 1.000000000000e+00 
3.272946212520e+01 1.000000000000e+00 
3.282500044968e+01 1.000000000000e+00 
3.291958339150e+01 1.000000000000e+00 
3.301322050286e+01 1.000000000000e+00 
3.310592124187e+01 1.000000000000e+00 
3.319769497445e+01 1.000000000000e+00 
3.328855097092e+01 1.000000000000e+00 
3.337849840796e+01 1.000000000000e+00 
3.346754637042e+01 1.000000000000e+00 
3.355570385318e+01 1.000000000000e+00 
3.364297976034e+01 1.000000000000e+00 
3.372938290701e+01 1.000000000000e+00 
3.381492202372e+01 1.000000000000e+00 
3.389960575025e+01 1.000000000000e+00 
3.398344263750e+01 1.000000000000e+00 
3.406644115443e+01 1.000000000000e+00 
3.414860968707e+01 1.000000000000e+00 
3.422995653501e+01 1.000000000000e+00 
3.431048991572e+01 1.000000000000e+00 
3.439021796357e+01 1.000000000000e+00 
3.446914872888e+01 1.000000000000e+00 
3.454729018479e+01 1.000000000000e+00 
3.462465022621e+01 1.000000000000e+00 
3.470123666880e+01 1.000000000000e+00 
3.477705724791e+01 1.000000000000e+00 
3.485211962024e+01 1.000000000000e+00 
3.492643136789e+01 1.000000000000e+00 
3.500000000000e+01 1.000000000000e+00 
 TITLE = "Profiles along polylines"
 VARIABLES = "DIST" "SATURATION1" 
 ZONE T="TIME=1.797693134862e+308"
0.000000000000e+00 1.000000000000e+00 
4.228329442654e-01 1.000000000000e+00 
8.414375614044e-01 1.000000000000e+00 
1.255856131274e+00 1.000000000000e+00 
1.666130515293e+00 1.000000000000e+00 
2.072302156946e+00 1.000000000000e+00 
2.474412082368e+00 1.000000000000e+00 
2.872500908616e+00 1.000000000000e+00 
3.266608846629e+00 1.000000000000e+00 
3.656775704110e+00 1.000000000000e+00 
4.043040890969e+00 1.000000000000e+00 
4.425443427261e+00 1.000000000000e+00 
4.804021937899e+00 1.000000000000e+00 
5.178814663244e+00 1.000000000000e+00 
5.549859461389e+00 1.000000000000e+00 
5.917193810761e+00 1.000000000000e+00 
6.280854817522e+00 1.000000000000e+00 
6.640879212698e+00 1.000000000000e+00 
6.997303364810e+00 1.000000000000e+00 
7.350163276670e+00 1.000000000000e+00 
7.699494590141e+00 1.000000000000e+00 
8.045332590632e+00 1.000000000000e+00 
8.387712209067e+00 1.000000000000e+00 
8.726668031512e+00 1.000000000000e+00 
9.062234295644e+00 1.000000000000e+00 
9.394444897751e+00 1.000000000000e+00 
9.723333394234e+00 1.000000000000e+00 
1.004893300589e+01 1.000000000000e+00 
1.037127662187e+01 1.000000000000e+00 
1.069039680122e+01 1.000000000000e+00 
1.100632577934e+01 1.000000000000e+00 
1.131909546669e+01 1.000000000000e+00 
1.162873745788e+01 1.000000000000e+00 
1.193528303009e+01 1.000000000000e+00 
1.223876314429e+01 1.000000000000e+00 
1.253920845666e+01 1.000000000000e+00 
1.283664931687e+01 1.000000000000e+00 
1.313111576906e+01 1.000000000000e+00 
1.342263755783e+01 1.000000000000e+00 
1.371124412909e+01 1.000000000000e+00 
1.399696463333e+01 1.000000000000e+00 
1.427982793156e+01 1.000000000000e+00 
1.455986259584e+01 1.000000000000e+00 
1.483709691247e+01 1.000000000000e+00 
1.511155888769e+01 1.000000000000e+00 
1.538327624542e+01 1.000000000000e+00 
1.565227643033e+01 1.000000000000e+00 
1.591858661336e+01 1.000000000000e+00 
1.618223369197e+01 1.000000000000e+00 
1.644324429822e+01 1.000000000000e+00 
1.670164479881e+01 1.000000000000e+00 
1.695746129524e+01 1.000000000000e+00 
1.721071962643e+01 1.000000000000e+00 
1.746144537402e+01 1.000000000000e+00 
1.770966386479e+01 1.000000000000e+00 
1.795540017062e+01 1.000000000000e+00 
1.819867911356e+01 1.000000000000e+00 
1.843952526816e+01 1.000000000000e+00 
1.867796296125e+01 1.000000000000e+00 
1.891401627686e+01 1.000000000000e+00 
1.914770905841e+01 1.000000000000e+00 
1.937906491098e+01 1.000000000000e+00 
1.960810720601e+01 1.000000000000e+00 
1.983485907816e+01 1.000000000000e+00 
2.005934343268e+01 1.000000000000e+00 
2.028158294467e+01 1.000000000000e+00 
2.050160006120e+01 1.000000000000e+00 
2.071941700570e+01 1.000000000000e+00 
2.093505577995e+01 1.000000000000e+00 
2.114853816581e+01 1.000000000000e+00 
2.135988572703e+01 1.000000000000e+00 
2.156911981364e+01 1.000000000000e+00 
2.177626156092e+01 1.000000000000e+00 
2.198133189116e+01 1.000000000000e+00 
2.218435151784e+01 1.000000000000e+00 
2.238534094724e+01 9.906782550878e-01 
2.258432048250e+01 9.491005507665e-01 
2.278131022253e+01 9.064513816166e-01 
2.297633006606e+01 8.672118397424e-01 
2.316939971304e+01 8.323063677692e-01 
2.336053866346e+01 8.015337813272e-01 
2.354976622364e+01 7.743930068749e-01 
2.373710150789e+01 7.503549413162e-01 
2.392256343949e+01 7.289454811606e-01 
2.410617075196e+01 7.097632645207e-01 
2.428794199023e+01 6.924757221515e-01 
2.446789551442e+01 6.768091079240e-01 
2.464604950347e+01 6.625380230748e-01 
2.482242195364e+01 6.494761840789e-01 
2.499703067945e+01 6.374688013681e-01 
2.516989331736e+01 6.263864610353e-01 
2.534102732932e+01 6.161202691338e-01 
2.551045000099e+01 6.065780107113e-01 
2.567817844532e+01 5.976811074604e-01 
2.584422960594e+01 5.893621995751e-01 
2.600862025536e+01 5.815632145270e-01 
2.617136699839e+01 5.742338155949e-01 
2.633248627282e+01 5.673301483764e-01 
2.649199435544e+01 5.608138216031e-01 
2.664990735733e+01 5.546510740735e-01 
2.680624122730e+01 5.488120890373e-01 
2.696101176021e+01 5.432704268037e-01 
2.711423458968e+01 5.380025532757e-01 
2.726592519133e+01 5.329874453021e-01 
2.741609888585e+01 5.282062589655e-01 
2.756477084217e+01 5.236420494136e-01 
2.771195607779e+01 5.192795332037e-01 
2.785766946191e+01 5.151048856711e-01 
2.800192571308e+01 5.111055676435e-01 
2.814473939969e+01 5.072701764463e-01 
2.828612495072e+01 5.035883171046e-01 
2.842609664807e+01 5.000504912910e-01 
2.856466862699e+01 4.966480006277e-01 
2.870185488672e+01 4.933728621404e-01 
2.883766928542e+01 4.902177346826e-01 
2.897212553780e+01 4.871758543176e-01 
2.910523722576e+01 4.842409771754e-01 
2.923701779842e+01 4.814073292627e-01 
2.936748056702e+01 4.786695621591e-01 
2.949663870762e+01 4.760227135538e-01 
2.962450526641e+01 4.734621721002e-01 
2.975109315967e+01 4.709836461912e-01 
2.987641517381e+01 4.685831360580e-01 
3.000048396790e+01 4.662569087370e-01 
3.012331207364e+01 4.640014756530e-01 
3.024491189790e+01 4.618135724149e-01 
3.036529572520e+01 4.596901406115e-01 
3.048447571493e+01 4.576283114686e-01 
3.060246390389e+01 4.556253909768e-01 
3.071927221125e+01 4.536788463774e-01 
3.083491243578e+01 4.517862940241e-01 
3.094939625820e+01 4.499454882634e-01 
3.106273524093e+01 4.481543113522e-01 
3.117494083309e+01 4.464107641807e-01 
3.128602437007e+01 4.447129578812e-01 
3.139599707071e+01 4.430591061900e-01 
3.150487004474e+01 4.414475182969e-01 
3.161265428979e+01 4.398765924411e-01 
3.171936069098e+01 4.383448099882e-01 
3.182500002845e+01 4.368507298754e-01 
3.192958297412e+01 4.353929836426e-01 
3.203312008878e+01 4.339702708495e-01 
3.213562183203e+01 4.325813546694e-01 
3.223709855906e+01 4.312250579948e-01 
3.233756051763e+01 4.299002598313e-01 
3.243701785798e+01 4.286058917900e-01 
3.253548062687e+01 4.273409350382e-01 
3.263295876722e+01 4.261044174003e-01 
3.272946212520e+01 4.248954105693e-01 
3.282500044968e+01 4.237130276103e-01 
3.291958339150e+01 4.225564206374e-01 
3.301322050286e+01 4.214247786483e-01 
3.310592124187e+01 4.203173254439e-01 
3.319769497445e+01 4.192333177180e-01 
3.328855097092e+01 4.181720433338e-01 
3.337849840796e+01 4.171328196519e-01 
3.346754637042e+01 4.161149919663e-01 
3.355570385318e+01 4.151179320408e-01 
3.364297976034e+01 4.141410367659e-01 
3.372938290701e+01 4.131837268708e-01 
3.381492202372e+01 4.122454456866e-01 
3.389960575025e+01 4.113256580976e-01 
3.398344263750e+01 4.104238494713e-01 
3.406644115443e+01 4.095395245969e-01 
3.414860968707e+01 4.086722067698e-01 
3.422995653501e+01 4.078214369562e-01 
3.431048991572e+01 4.069867729236e-01 
3.439021796357e+01 4.061677884770e-01 
3.446914872888e+01 4.053640727361e-01 
3.454729018479e+01 4.045752293748e-01 
3.462465022621e+01 4.038008759824e-01 
3.470123666880e+01 4.030406434577e-01 
3.477705724791e+01 4.022941754376e-01 
3.485211962024e+01 4.015611277300e-01 
3.492643136789e+01 4.008411677525e-01 
3.500000000000e+01 4.001339701118e-01 
