 TITLE = "Profiles along polylines"
 VARIABLES = "DIST" "SATURATION1" 
 ZONE T="TIME=0.000000000000e+00"
0.000000000000e+00 1.000000000000e+00 
0.000000000000e+00 1.000000000000e+00 
0.000000000000e+00 1.000000000000e+00 
4.228329442654e-01 1.000000000000e+00 
4.228329442654e-01 1.000000000000e+00 
4.228329442654e-01 1.000000000000e+00 
8.414375614044e-01 1.000000000000e+00 
8.414375614044e-01 1.000000000000e+00 
8.414375614044e-01 1.000000000000e+00 
1.255856131274e+00 1.000000000000e+00 
1.255856131274e+00 1.000000000000e+00 
1.255856131274e+00 1.000000000000e+00 
1.666130515293e+00 1.000000000000e+00 
1.666130515293e+00 1.000000000000e+00 
1.666130515293e+00 1.000000000000e+00 
2.072302156946e+00 1.000000000000e+00 
2.072302156946e+00 1.000000000000e+00 
2.072302156946e+00 1.000000000000e+00 
2.474412082368e+00 1.000000000000e+00 
2.474412082368e+00 1.000000000000e+00 
2.474412082368e+00 1.000000000000e+00 
2.872500908616e+00 1.000000000000e+00 
2.872500908616e+00 1.000000000000e+00 
2.872500908616e+00 1.000000000000e+00 
3.266608846629e+00 1.000000000000e+00 
3.266608846629e+00 1.000000000000e+00 
3.266608846629e+00 1.000000000000e+00 
3.656775704110e+00 1.000000000000e+00 
3.656775704110e+00 1.000000000000e+00 
3.656775704110e+00 1.000000000000e+00 
4.043040890969e+00 1.000000000000e+00 
4.043040890969e+00 1.000000000000e+00 
4.043040890969e+00 1.000000000000e+00 
4.425443427261e+00 1.000000000000e+00 
4.425443427261e+00 1.000000000000e+00 
4.425443427261e+00 1.000000000000e+00 
4.804021937899e+00 1.000000000000e+00 
4.804021937899e+00 1.000000000000e+00 
4.804021937899e+00 1.000000000000e+00 
5.178814663244e+00 1.000000000000e+00 
5.178814663244e+00 1.000000000000e+00 
5.178814663244e+00 1.000000000000e+00 
5.549859461389e+00 1.000000000000e+00 
5.549859461389e+00 1.000000000000e+00 
5.549859461389e+00 1.000000000000e+00 
5.917193810761e+00 1.000000000000e+00 
5.917193810761e+00 1.000000000000e+00 
5.917193810761e+00 1.000000000000e+00 
6.280854817522e+00 1.000000000000e+00 
6.280854817522e+00 1.000000000000e+00 
6.280854817522e+00 1.000000000000e+00 
6.640879212698e+00 1.000000000000e+00 
6.640879212698e+00 1.000000000000e+00 
6.640879212698e+00 1.000000000000e+00 
6.997303364810e+00 1.000000000000e+00 
6.997303364810e+00 1.000000000000e+00 
6.997303364810e+00 1.000000000000e+00 
7.350163276670e+00 1.000000000000e+00 
7.350163276670e+00 1.000000000000e+00 
7.350163276670e+00 1.000000000000e+00 
7.699494590141e+00 1.000000000000e+00 
7.699494590141e+00 1.000000000000e+00 
7.699494590141e+00 1.000000000000e+00 
8.045332590632e+00 1.000000000000e+00 
8.045332590632e+00 1.000000000000e+00 
8.045332590632e+00 1.000000000000e+00 
8.387712209067e+00 1.000000000000e+00 
8.387712209067e+00 1.000000000000e+00 
8.387712209067e+00 1.000000000000e+00 
8.726668031512e+00 1.000000000000e+00 
8.726668031512e+00 1.000000000000e+00 
8.726668031512e+00 1.000000000000e+00 
9.062234295644e+00 1.000000000000e+00 
9.062234295644e+00 1.000000000000e+00 
9.062234295644e+00 1.000000000000e+00 
9.394444897751e+00 1.000000000000e+00 
9.394444897751e+00 1.000000000000e+00 
9.394444897751e+00 1.000000000000e+00 
9.723333394234e+00 1.000000000000e+00 
9.723333394234e+00 1.000000000000e+00 
9.723333394234e+00 1.000000000000e+00 
1.004893300589e+01 1.000000000000e+00 
1.004893300589e+01 1.000000000000e+00 
1.004893300589e+01 1.000000000000e+00 
1.037127662187e+01 1.000000000000e+00 
1.037127662187e+01 1.000000000000e+00 
1.037127662187e+01 1.000000000000e+00 
1.069039680122e+01 1.000000000000e+00 
1.069039680122e+01 1.000000000000e+00 
1.069039680122e+01 1.000000000000e+00 
1.100632577934e+01 1.000000000000e+00 
1.100632577934e+01 1.000000000000e+00 
1.100632577934e+01 1.000000000000e+00 
1.131909546669e+01 1.000000000000e+00 
1.131909546669e+01 1.000000000000e+00 
1.131909546669e+01 1.000000000000e+00 
1.162873745788e+01 1.000000000000e+00 
1.162873745788e+01 1.000000000000e+00 
1.162873745788e+01 1.000000000000e+00 
1.193528303009e+01 1.000000000000e+00 
1.193528303009e+01 1.000000000000e+00 
1.193528303009e+01 1.000000000000e+00 
1.223876314429e+01 1.000000000000e+00 
1.223876314429e+01 1.000000000000e+00 
1.223876314429e+01 1.000000000000e+00 
1.253920845666e+01 1.000000000000e+00 
1.253920845666e+01 1.000000000000e+00 
1.253920845666e+01 1.000000000000e+00 
1.283664931687e+01 1.000000000000e+00 
1.283664931687e+01 1.000000000000e+00 
1.283664931687e+01 1.000000000000e+00 
1.313111576906e+01 1.000000000000e+00 
1.313111576906e+01 1.000000000000e+00 
1.313111576906e+01 1.000000000000e+00 
1.342263755783e+01 1.000000000000e+00 
1.342263755783e+01 1.000000000000e+00 
1.342263755783e+01 1.000000000000e+00 
1.371124412909e+01 1.000000000000e+00 
1.371124412909e+01 1.000000000000e+00 
1.371124412909e+01 1.000000000000e+00 
1.399696463333e+01 1.000000000000e+00 
1.399696463333e+01 1.000000000000e+00 
1.399696463333e+01 1.000000000000e+00 
1.427982793156e+01 1.000000000000e+00 
1.427982793156e+01 1.000000000000e+00 
1.427982793156e+01 1.000000000000e+00 
1.455986259584e+01 1.000000000000e+00 
1.455986259584e+01 1.000000000000e+00 
1.455986259584e+01 1.000000000000e+00 
1.483709691247e+01 1.000000000000e+00 
1.483709691247e+01 1.000000000000e+00 
1.483709691247e+01 1.000000000000e+00 
1.511155888769e+01 1.000000000000e+00 
1.511155888769e+01 1.000000000000e+00 
1.511155888769e+01 1.000000000000e+00 
1.538327624542e+01 1.000000000000e+00 
1.538327624542e+01 1.000000000000e+00 
1.538327624542e+01 1.000000000000e+00 
1.565227643033e+01 1.000000000000e+00 
1.565227643033e+01 1.000000000000e+00 
1.565227643033e+01 1.000000000000e+00 
1.591858661336e+01 1.000000000000e+00 
1.591858661336e+01 1.000000000000e+00 
1.591858661336e+01 1.000000000000e+00 
1.618223369197e+01 1.000000000000e+00 
1.618223369197e+01 1.000000000000e+00 
1.618223369197e+01 1.000000000000e+00 
1.644324429822e+01 1.000000000000e+00 
1.644324429822e+01 1.000000000000e+00 
1.644324429822e+01 1.000000000000e+00 
1.670164479881e+01 1.000000000000e+00 
1.670164479881e+01 1.000000000000e+00 
1.670164479881e+01 1.000000000000e+00 
1.695746129524e+01 1.000000000000e+00 
1.695746129524e+01 1.000000000000e+00 
1.695746129524e+01 1.000000000000e+00 
1.721071962643e+01 1.000000000000e+00 
1.721071962643e+01 1.000000000000e+00 
1.721071962643e+01 1.000000000000e+00 
1.746144537402e+01 1.000000000000e+00 
1.746144537402e+01 1.000000000000e+00 
1.746144537402e+01 1.000000000000e+00 
1.770966386479e+01 1.000000000000e+00 
1.770966386479e+01 1.000000000000e+00 
1.770966386479e+01 1.000000000000e+00 
1.795540017062e+01 1.000000000000e+00 
1.795540017062e+01 1.000000000000e+00 
1.795540017062e+01 1.000000000000e+00 
1.819867911356e+01 1.000000000000e+00 
1.819867911356e+01 1.000000000000e+00 
1.819867911356e+01 1.000000000000e+00 
1.843952526816e+01 1.000000000000e+00 
1.843952526816e+01 1.000000000000e+00 
1.843952526816e+01 1.000000000000e+00 
1.867796296125e+01 1.000000000000e+00 
1.867796296125e+01 1.000000000000e+00 
1.867796296125e+01 1.000000000000e+00 
1.891401627686e+01 1.000000000000e+00 
1.891401627686e+01 1.000000000000e+00 
1.891401627686e+01 1.000000000000e+00 
1.914770905841e+01 1.000000000000e+00 
1.914770905841e+01 1.000000000000e+00 
1.914770905841e+01 1.000000000000e+00 
1.937906491098e+01 1.000000000000e+00 
1.937906491098e+01 1.000000000000e+00 
1.937906491098e+01 1.000000000000e+00 
1.960810720601e+01 1.000000000000e+00 
1.960810720601e+01 1.000000000000e+00 
1.960810720601e+01 1.000000000000e+00 
1.983485907816e+01 1.000000000000e+00 
1.983485907816e+01 1.000000000000e+00 
1.983485907816e+01 1.000000000000e+00 
2.005934343268e+01 1.000000000000e+00 
2.005934343268e+01 1.000000000000e+00 
2.005934343268e+01 1.000000000000e+00 
2.028158294467e+01 1.000000000000e+00 
2.028158294467e+01 1.000000000000e+00 
2.028158294467e+01 1.000000000000e+00 
2.050160006120e+01 1.000000000000e+00 
2.050160006120e+01 1.000000000000e+00 
2.050160006120e+01 1.000000000000e+00 
2.071941700570e+01 1.000000000000e+00 
2.071941700570e+01 1.000000000000e+00 
2.071941700570e+01 1.000000000000e+00 
2.093505577995e+01 1.000000000000e+00 
2.093505577995e+01 1.000000000000e+00 
2.093505577995e+01 1.000000000000e+00 
2.114853816581e+01 1.000000000000e+00 
2.114853816581e+01 1.000000000000e+00 
2.114853816581e+01 1.000000000000e+00 
2.135988572703e+01 1.000000000000e+00 
2.135988572703e+01 1.000000000000e+00 
2.135988572703e+01 1.000000000000e+00 
2.156911981364e+01 1.000000000000e+00 
2.156911981364e+01 1.000000000000e+00 
2.156911981364e+01 1.000000000000e+00 
2.177626156092e+01 1.000000000000e+00 
2.177626156092e+01 1.000000000000e+00 
2.177626156092e+01 1.000000000000e+00 
2.198133189116e+01 1.000000000000e+00 
2.198133189116e+01 1.000000000000e+00 
2.198133189116e+01 1.000000000000e+00 
2.218435151784e+01 1.000000000000e+00 
2.218435151784e+01 1.000000000000e+00 
2.218435151784e+01 1.000000000000e+00 
2.238534094724e+01 1.000000000000e+00 
2.238534094724e+01 1.000000000000e+00 
2.238534094724e+01 1.000000000000e+00 
2.258432048250e+01 1.000000000000e+00 
2.258432048250e+01 1.000000000000e+00 
2.258432048250e+01 1.000000000000e+00 
2.278131022253e+01 1.000000000000e+00 
2.278131022253e+01 1.000000000000e+00 
2.278131022253e+01 1.000000000000e+00 
2.297633006606e+01 1.000000000000e+00 
2.297633006606e+01 1.000000000000e+00 
2.297633006606e+01 1.000000000000e+00 
2.316939971304e+01 1.000000000000e+00 
2.316939971304e+01 1.000000000000e+00 
2.316939971304e+01 1.000000000000e+00 
2.336053866346e+01 1.000000000000e+00 
2.336053866346e+01 1.000000000000e+00 
2.336053866346e+01 1.000000000000e+00 
2.354976622364e+01 1.000000000000e+00 
2.354976622364e+01 1.000000000000e+00 
2.354976622364e+01 1.000000000000e+00 
2.373710150789e+01 1.000000000000e+00 
2.373710150789e+01 1.000000000000e+00 
2.373710150789e+01 1.000000000000e+00 
2.392256343949e+01 1.000000000000e+00 
2.392256343949e+01 1.000000000000e+00 
2.392256343949e+01 1.000000000000e+00 
2.410617075196e+01 1.000000000000e+00 
2.410617075196e+01 1.000000000000e+00 
2.410617075196e+01 1.000000000000e+00 
2.428794199023e+01 1.000000000000e+00 
2.428794199023e+01 1.000000000000e+00 
2.428794199023e+01 1.000000000000e+00 
2.446789551442e+01 1.000000000000e+00 
2.446789551442e+01 1.000000000000e+00 
2.446789551442e+01 1.000000000000e+00 
2.464604950347e+01 1.000000000000e+00 
2.464604950347e+01 1.000000000000e+00 
2.464604950347e+01 1.000000000000e+00 
2.482242195364e+01 1.000000000000e+00 
2.482242195364e+01 1.000000000000e+00 
2.482242195364e+01 1.000000000000e+00 
2.499703067945e+01 1.000000000000e+00 
2.499703067945e+01 1.000000000000e+00 
2.499703067945e+01 1.000000000000e+00 
2.516989331736e+01 1.000000000000e+00 
2.516989331736e+01 1.000000000000e+00 
2.516989331736e+01 1.000000000000e+00 
2.534102732932e+01 1.000000000000e+00 
2.534102732932e+01 1.000000000000e+00 
2.534102732932e+01 1.000000000000e+00 
2.551045000099e+01 1.000000000000e+00 
2.551045000099e+01 1.000000000000e+00 
2.551045000099e+01 1.000000000000e+00 
2.567817844532e+01 1.000000000000e+00 
2.567817844532e+01 1.000000000000e+00 
2.567817844532e+01 1.000000000000e+00 
2.584422960594e+01 1.000000000000e+00 
2.584422960594e+01 1.000000000000e+00 
2.584422960594e+01 1.000000000000e+00 
2.600862025536e+01 1.000000000000e+00 
2.600862025536e+01 1.000000000000e+00 
2.600862025536e+01 1.000000000000e+00 
2.617136699839e+01 1.000000000000e+00 
2.617136699839e+01 1.000000000000e+00 
2.617136699839e+01 1.000000000000e+00 
2.633248627282e+01 1.000000000000e+00 
2.633248627282e+01 1.000000000000e+00 
2.633248627282e+01 1.000000000000e+00 
2.649199435544e+01 1.000000000000e+00 
2.649199435544e+01 1.000000000000e+00 
2.649199435544e+01 1.000000000000e+00 
2.664990735733e+01 1.000000000000e+00 
2.664990735733e+01 1.000000000000e+00 
2.664990735733e+01 1.000000000000e+00 
2.680624122730e+01 1.000000000000e+00 
2.680624122730e+01 1.000000000000e+00 
2.680624122730e+01 1.000000000000e+00 
2.696101176021e+01 1.000000000000e+00 
2.696101176021e+01 1.000000000000e+00 
2.696101176021e+01 1.000000000000e+00 
2.711423458968e+01 1.000000000000e+00 
2.711423458968e+01 1.000000000000e+00 
2.711423458968e+01 1.000000000000e+00 
2.726592519133e+01 1.000000000000e+00 
2.726592519133e+01 1.000000000000e+00 
2.726592519133e+01 1.000000000000e+00 
2.741609888585e+01 1.000000000000e+00 
2.741609888585e+01 1.000000000000e+00 
2.741609888585e+01 1.000000000000e+00 
2.756477084217e+01 1.000000000000e+00 
2.756477084217e+01 1.000000000000e+00 
2.756477084217e+01 1.000000000000e+00 
2.771195607779e+01 1.000000000000e+00 
2.771195607779e+01 1.000000000000e+00 
2.771195607779e+01 1.000000000000e+00 
2.785766946191e+01 1.000000000000e+00 
2.785766946191e+01 1.000000000000e+00 
2.785766946191e+01 1.000000000000e+00 
2.800192571308e+01 1.000000000000e+00 
2.800192571308e+01 1.000000000000e+00 
2.800192571308e+01 1.000000000000e+00 
2.814473939969e+01 1.000000000000e+00 
2.814473939969e+01 1.000000000000e+00 
2.814473939969e+01 1.000000000000e+00 
2.828612495072e+01 1.000000000000e+00 
2.828612495072e+01 1.000000000000e+00 
2.828612495072e+01 1.000000000000e+00 
2.842609664807e+01 1.000000000000e+00 
2.842609664807e+01 1.000000000000e+00 
2.842609664807e+01 1.000000000000e+00 
2.856466862699e+01 1.000000000000e+00 
2.856466862699e+01 1.000000000000e+00 
2.856466862699e+01 1.000000000000e+00 
2.870185488672e+01 1.000000000000e+00 
2.870185488672e+01 1.000000000000e+00 
2.870185488672e+01 1.000000000000e+00 
2.883766928542e+01 1.000000000000e+00 
2.883766928542e+01 1.000000000000e+00 
2.883766928542e+01 1.000000000000e+00 
2.897212553780e+01 1.000000000000e+00 
2.897212553780e+01 1.000000000000e+00 
2.897212553780e+01 1.000000000000e+00 
2.910523722576e+01 1.000000000000e+00 
2.910523722576e+01 1.000000000000e+00 
2.910523722576e+01 1.000000000000e+00 
2.923701779842e+01 1.000000000000e+00 
2.923701779842e+01 1.000000000000e+00 
2.923701779842e+01 1.000000000000e+00 
2.936748056702e+01 1.000000000000e+00 
2.936748056702e+01 1.000000000000e+00 
2.936748056702e+01 1.000000000000e+00 
2.949663870762e+01 1.000000000000e+00 
2.949663870762e+01 1.000000000000e+00 
2.949663870762e+01 1.000000000000e+00 
2.962450526641e+01 1.000000000000e+00 
2.962450526641e+01 1.000000000000e+00 
2.962450526641e+01 1.000000000000e+00 
2.975109315967e+01 1.000000000000e+00 
2.975109315967e+01 1.000000000000e+00 
2.975109315967e+01 1.000000000000e+00 
2.987641517381e+01 1.000000000000e+00 
2.987641517381e+01 1.000000000000e+00 
2.987641517381e+01 1.000000000000e+00 
3.000048396790e+01 1.000000000000e+00 
3.000048396790e+01 1.000000000000e+00 
3.000048396790e+01 1.000000000000e+00 
3.012331207364e+01 1.000000000000e+00 
3.012331207364e+01 1.000000000000e+00 
3.012331207364e+01 1.000000000000e+00 
3.024491189790e+01 1.000000000000e+00 
3.024491189790e+01 1.000000000000e+00 
3.024491189790e+01 1.000000000000e+00 
3.036529572520e+01 1.000000000000e+00 
3.036529572520e+01 1.000000000000e+00 
3.036529572520e+01 1.000000000000e+00 
3.048447571493e+01 1.000000000000e+00 
3.048447571493e+01 1.000000000000e+00 
3.048447571493e+01 1.000000000000e+00 
3.060246390389e+01 1.000000000000e+00 
3.060246390389e+01 1.000000000000e+00 
3.060246390389e+01 1.000000000000e+00 
3.071927221125e+01 1.000000000000e+00 
3.071927221125e+01 1.000000000000e+00 
3.071927221125e+01 1.000000000000e+00 
3.083491243578e+01 1.000000000000e+00 
3.083491243578e+01 1.000000000000e+00 
3.083491243578e+01 1.000000000000e+00 
3.094939625820e+01 1.000000000000e+00 
3.094939625820e+01 1.000000000000e+00 
3.094939625820e+01 1.000000000000e+00 
3.106273524093e+01 1.000000000000e+00 
3.106273524093e+01 1.000000000000e+00 
3.106273524093e+01 1.000000000000e+00 
3.117494083309e+01 1.000000000000e+00 
3.117494083309e+01 1.000000000000e+00 
3.117494083309e+01 1.000000000000e+00 
3.128602437007e+01 1.000000000000e+00 
3.128602437007e+01 1.000000000000e+00 
3.128602437007e+01 1.000000000000e+00 
3.139599707071e+01 1.000000000000e+00 
3.139599707071e+01 1.000000000000e+00 
3.139599707071e+01 1.000000000000e+00 
3.150487004474e+01 1.000000000000e+00 
3.150487004474e+01 1.000000000000e+00 
3.150487004474e+01 1.000000000000e+00 
3.161265428979e+01 1.000000000000e+00 
3.161265428979e+01 1.000000000000e+00 
3.161265428979e+01 1.000000000000e+00 
3.171936069098e+01 1.000000000000e+00 
3.171936069098e+01 1.000000000000e+00 
3.171936069098e+01 1.000000000000e+00 
3.182500002845e+01 1.000000000000e+00 
3.182500002845e+01 1.000000000000e+00 
3.182500002845e+01 1.000000000000e+00 
3.192958297412e+01 1.000000000000e+00 
3.192958297412e+01 1.000000000000e+00 
3.192958297412e+01 1.000000000000e+00 
3.203312008878e+01 1.000000000000e+00 
3.203312008878e+01 1.000000000000e+00 
3.203312008878e+01 1.000000000000e+00 
3.213562183203e+01 1.000000000000e+00 
3.213562183203e+01 1.000000000000e+00 
3.213562183203e+01 1.000000000000e+00 
3.223709855906e+01 1.000000000000e+00 
3.223709855906e+01 1.000000000000e+00 
3.223709855906e+01 1.000000000000e+00 
3.233756051763e+01 1.000000000000e+00 
3.233756051763e+01 1.000000000000e+00 
3.233756051763e+01 1.000000000000e+00 
3.243701785798e+01 1.000000000000e+00 
3.243701785798e+01 1.000000000000e+00 
3.243701785798e+01 1.000000000000e+00 
3.253548062687e+01 1.000000000000e+00 
3.253548062687e+01 1.000000000000e+00 
3.253548062687e+01 1.000000000000e+00 
3.263295876722e+01 1.000000000000e+00 
3.263295876722e+01 1.000000000000e+00 
3.263295876722e+01 1.000000000000e+00 
3.272946212520e+01 1.000000000000e+00 
3.272946212520e+01 1.000000000000e+00 
3.272946212520e+01 1.000000000000e+00 
3.282500044968e+01 1.000000000000e+00 
3.282500044968e+01 1.000000000000e+00 
3.282500044968e+01 1.000000000000e+00 
3.291958339150e+01 1.000000000000e+00 
3.291958339150e+01 1.000000000000e+00 
3.291958339150e+01 1.000000000000e+00 
3.301322050286e+01 1.000000000000e+00 
3.301322050286e+01 1.000000000000e+00 
3.301322050286e+01 1.000000000000e+00 
3.310592124187e+01 1.000000000000e+00 
3.310592124187e+01 1.000000000000e+00 
3.310592124187e+01 1.000000000000e+00 
3.319769497445e+01 1.000000000000e+00 
3.319769497445e+01 1.000000000000e+00 
3.319769497445e+01 1.000000000000e+00 
3.328855097092e+01 1.000000000000e+00 
3.328855097092e+01 1.000000000000e+00 
3.328855097092e+01 1.000000000000e+00 
3.337849840796e+01 1.000000000000e+00 
3.337849840796e+01 1.000000000000e+00 
3.337849840796e+01 1.000000000000e+00 
3.346754637042e+01 1.000000000000e+00 
3.346754637042e+01 1.000000000000e+00 
3.346754637042e+01 1.000000000000e+00 
3.355570385318e+01 1.000000000000e+00 
3.355570385318e+01 1.000000000000e+00 
3.355570385318e+01 1.000000000000e+00 
3.364297976034e+01 1.000000000000e+00 
3.364297976034e+01 1.000000000000e+00 
3.364297976034e+01 1.000000000000e+00 
3.372938290701e+01 1.000000000000e+00 
3.372938290701e+01 1.000000000000e+00 
3.372938290701e+01 1.000000000000e+00 
3.381492202372e+01 1.000000000000e+00 
3.381492202372e+01 1.000000000000e+00 
3.381492202372e+01 1.000000000000e+00 
3.389960575025e+01 1.000000000000e+00 
3.389960575025e+01 1.000000000000e+00 
3.389960575025e+01 1.000000000000e+00 
3.398344263750e+01 1.000000000000e+00 
3.398344263750e+01 1.000000000000e+00 
3.398344263750e+01 1.000000000000e+00 
3.406644115443e+01 1.000000000000e+00 
3.406644115443e+01 1.000000000000e+00 
3.406644115443e+01 1.000000000000e+00 
3.414860968707e+01 1.000000000000e+00 
3.414860968707e+01 1.000000000000e+00 
3.414860968707e+01 1.000000000000e+00 
3.422995653501e+01 1.000000000000e+00 
3.422995653501e+01 1.000000000000e+00 
3.422995653501e+01 1.000000000000e+00 
3.431048991572e+01 1.000000000000e+00 
3.431048991572e+01 1.000000000000e+00 
3.431048991572e+01 1.000000000000e+00 
3.439021796357e+01 1.000000000000e+00 
3.439021796357e+01 1.000000000000e+00 
3.439021796357e+01 1.000000000000e+00 
3.446914872888e+01 1.000000000000e+00 
3.446914872888e+01 1.000000000000e+00 
3.446914872888e+01 1.000000000000e+00 
3.454729018479e+01 1.000000000000e+00 
3.454729018479e+01 1.000000000000e+00 
3.454729018479e+01 1.000000000000e+00 
3.462465022621e+01 1.000000000000e+00 
3.462465022621e+01 1.000000000000e+00 
3.462465022621e+01 1.000000000000e+00 
3.470123666880e+01 1.000000000000e+00 
3.470123666880e+01 1.000000000000e+00 
3.470123666880e+01 1.000000000000e+00 
3.477705724791e+01 1.000000000000e+00 
3.477705724791e+01 1.000000000000e+00 
3.477705724791e+01 1.000000000000e+00 
3.485211962024e+01 1.000000000000e+00 
3.485211962024e+01 1.000000000000e+00 
3.485211962024e+01 1.000000000000e+00 
3.492643136789e+01 1.000000000000e+00 
3.492643136789e+01 1.000000000000e+00 
3.492643136789e+01 1.000000000000e+00 
3.500000000000e+01 1.000000000000e+00 
3.500000000000e+01 1.000000000000e+00 
3.500000000000e+01 1.000000000000e+00 
 TITLE = "Profiles along polylines"
 VARIABLES = "DIST" "SATURATION1" 
 ZONE T="TIME=1.797693134862e+308"
0.000000000000e+00 1.000000000000e+00 
0.000000000000e+00 1.000000000000e+00 
0.000000000000e+00 1.000000000000e+00 
4.228329442654e-01 1.000000000000e+00 
4.228329442654e-01 1.000000000000e+00 
4.228329442654e-01 1.000000000000e+00 
8.414375614044e-01 1.000000000000e+00 
8.414375614044e-01 1.000000000000e+00 
8.414375614044e-01 1.000000000000e+00 
1.255856131274e+00 1.000000000000e+00 
1.255856131274e+00 1.000000000000e+00 
1.255856131274e+00 1.000000000000e+00 
1.666130515293e+00 1.000000000000e+00 
1.666130515293e+00 1.000000000000e+00 
1.666130515293e+00 1.000000000000e+00 
2.072302156946e+00 1.000000000000e+00 
2.072302156946e+00 1.000000000000e+00 
2.072302156946e+00 1.000000000000e+00 
2.474412082368e+00 1.000000000000e+00 
2.474412082368e+00 1.000000000000e+00 
2.474412082368e+00 1.000000000000e+00 
2.872500908616e+00 1.000000000000e+00 
2.872500908616e+00 1.000000000000e+00 
2.872500908616e+00 1.000000000000e+00 
3.266608846629e+00 1.000000000000e+00 
3.266608846629e+00 1.000000000000e+00 
3.266608846629e+00 1.000000000000e+00 
3.656775704110e+00 1.000000000000e+00 
3.656775704110e+00 1.000000000000e+00 
3.656775704110e+00 1.000000000000e+00 
4.043040890969e+00 1.000000000000e+00 
4.043040890969e+00 1.000000000000e+00 
4.043040890969e+00 1.000000000000e+00 
4.425443427261e+00 1.000000000000e+00 
4.425443427261e+00 1.000000000000e+00 
4.425443427261e+00 1.000000000000e+00 
4.804021937899e+00 1.000000000000e+00 
4.804021937899e+00 1.000000000000e+00 
4.804021937899e+00 1.000000000000e+00 
5.178814663244e+00 1.000000000000e+00 
5.178814663244e+00 1.000000000000e+00 
5.178814663244e+00 1.000000000000e+00 
5.549859461389e+00 1.000000000000e+00 
5.549859461389e+00 1.000000000000e+00 
5.549859461389e+00 1.000000000000e+00 
5.917193810761e+00 1.000000000000e+00 
5.917193810761e+00 1.000000000000e+00 
5.917193810761e+00 1.000000000000e+00 
6.280854817522e+00 1.000000000000e+00 
6.280854817522e+00 1.000000000000e+00 
6.280854817522e+00 1.000000000000e+00 
6.640879212698e+00 1.000000000000e+00 
6.640879212698e+00 1.000000000000e+00 
6.640879212698e+00 1.000000000000e+00 
6.997303364810e+00 1.000000000000e+00 
6.997303364810e+00 1.000000000000e+00 
6.997303364810e+00 1.000000000000e+00 
7.350163276670e+00 1.000000000000e+00 
7.350163276670e+00 1.000000000000e+00 
7.350163276670e+00 1.000000000000e+00 
7.699494590141e+00 1.000000000000e+00 
7.699494590141e+00 1.000000000000e+00 
7.699494590141e+00 1.000000000000e+00 
8.045332590632e+00 1.000000000000e+00 
8.045332590632e+00 1.000000000000e+00 
8.045332590632e+00 1.000000000000e+00 
8.387712209067e+00 1.000000000000e+00 
8.387712209067e+00 1.000000000000e+00 
8.387712209067e+00 1.000000000000e+00 
8.726668031512e+00 1.000000000000e+00 
8.726668031512e+00 1.000000000000e+00 
8.726668031512e+00 1.000000000000e+00 
9.062234295644e+00 1.000000000000e+00 
9.062234295644e+00 1.000000000000e+00 
9.062234295644e+00 1.000000000000e+00 
9.394444897751e+00 1.000000000000e+00 
9.394444897751e+00 1.000000000000e+00 
9.394444897751e+00 1.000000000000e+00 
9.723333394234e+00 1.000000000000e+00 
9.723333394234e+00 1.000000000000e+00 
9.723333394234e+00 1.000000000000e+00 
1.004893300589e+01 1.000000000000e+00 
1.004893300589e+01 1.000000000000e+00 
1.004893300589e+01 1.000000000000e+00 
1.037127662187e+01 1.000000000000e+00 
1.037127662187e+01 1.000000000000e+00 
1.037127662187e+01 1.000000000000e+00 
1.069039680122e+01 1.000000000000e+00 
1.069039680122e+01 1.000000000000e+00 
1.069039680122e+01 1.000000000000e+00 
1.100632577934e+01 1.000000000000e+00 
1.100632577934e+01 1.000000000000e+00 
1.100632577934e+01 1.000000000000e+00 
1.131909546669e+01 1.000000000000e+00 
1.131909546669e+01 1.000000000000e+00 
1.131909546669e+01 1.000000000000e+00 
1.162873745788e+01 1.000000000000e+00 
1.162873745788e+01 1.000000000000e+00 
1.162873745788e+01 1.000000000000e+00 
1.193528303009e+01 1.000000000000e+00 
1.193528303009e+01 1.000000000000e+00 
1.193528303009e+01 1.000000000000e+00 
1.223876314429e+01 1.000000000000e+00 
1.223876314429e+01 1.000000000000e+00 
1.223876314429e+01 1.000000000000e+00 
1.253920845666e+01 1.000000000000e+00 
1.253920845666e+01 1.000000000000e+00 
1.253920845666e+01 1.000000000000e+00 
1.283664931687e+01 1.000000000000e+00 
1.283664931687e+01 1.000000000000e+00 
1.283664931687e+01 1.000000000000e+00 
1.313111576906e+01 1.000000000000e+00 
1.313111576906e+01 1.000000000000e+00 
1.313111576906e+01 1.000000000000e+00 
1.342263755783e+01 1.000000000000e+00 
1.342263755783e+01 1.000000000000e+00 
1.342263755783e+01 1.000000000000e+00 
1.371124412909e+01 1.000000000000e+00 
1.371124412909e+01 1.000000000000e+00 
1.371124412909e+01 1.000000000000e+00 
1.399696463333e+01 1.000000000000e+00 
1.399696463333e+01 1.000000000000e+00 
1.399696463333e+01 1.000000000000e+00 
1.427982793156e+01 1.000000000000e+00 
1.427982793156e+01 1.000000000000e+00 
1.427982793156e+01 1.000000000000e+00 
1.455986259584e+01 9.941039669448e-01 
1.455986259584e+01 9.887595846160e-01 
1.455986259584e+01 9.986009066373e-01 
1.483709691247e+01 9.285091992340e-01 
1.483709691247e+01 9.352348549761e-01 
1.483709691247e+01 9.420526241979e-01 
1.511155888769e+01 8.775452919987e-01 
1.511155888769e+01 8.715713664008e-01 
1.511155888769e+01 8.836542487263e-01 
1.538327624542e+01 8.280019523091e-01 
1.538327624542e+01 8.229188368189e-01 
1.538327624542e+01 8.332050309855e-01 
1.565227643033e+01 7.863593757850e-01 
1.565227643033e+01 7.820464746814e-01 
1.565227643033e+01 7.907690850123e-01 
1.591858661336e+01 7.512479798746e-01 
1.591858661336e+01 7.475573002730e-01 
1.591858661336e+01 7.550153259333e-01 
1.618223369197e+01 7.213456659857e-01 
1.618223369197e+01 7.181513753789e-01 
1.618223369197e+01 7.246008498178e-01 
1.644324429822e+01 6.955873088145e-01 
1.644324429822e+01 6.927908903707e-01 
1.644324429822e+01 6.984325630159e-01 
1.670164479881e+01 6.731528147087e-01 
1.670164479881e+01 6.706786640463e-01 
1.670164479881e+01 6.756665865005e-01 
1.695746129524e+01 6.534156277968e-01 
1.695746129524e+01 6.512056810111e-01 
1.695746129524e+01 6.556580992409e-01 
1.721071962643e+01 6.358944123177e-01 
1.721071962643e+01 6.339036946211e-01 
1.721071962643e+01 6.379121333603e-01 
1.746144537402e+01 6.202155142628e-01 
1.746144537402e+01 6.184087910324e-01 
1.746144537402e+01 6.220448986312e-01 
1.770966386479e+01 6.060853570389e-01 
1.770966386479e+01 6.044346879417e-01 
1.770966386479e+01 6.077552360397e-01 
1.795540017062e+01 5.932704438977e-01 
1.795540017062e+01 5.917534068515e-01 
1.795540017062e+01 5.948039196746e-01 
1.819867911356e+01 5.815828621960e-01 
1.819867911356e+01 5.801812581795e-01 
1.819867911356e+01 5.829986580308e-01 
1.843952526816e+01 5.708696993329e-01 
1.843952526816e+01 5.695685995421e-01 
1.843952526816e+01 5.721831520684e-01 
1.867796296125e+01 5.610052357036e-01 
1.867796296125e+01 5.597922730379e-01 
1.867796296125e+01 5.622290329454e-01 
1.891401627686e+01 5.518851203265e-01 
1.891401627686e+01 5.507499565511e-01 
1.891401627686e+01 5.530298542805e-01 
1.914770905841e+01 5.434219755411e-01 
1.914770905841e+01 5.423558959951e-01 
1.914770905841e+01 5.444965638257e-01 
1.937906491098e+01 5.355420423509e-01 
1.937906491098e+01 5.345376442554e-01 
1.937906491098e+01 5.365540512634e-01 
1.960810720601e+01 5.281825920075e-01 
1.960810720601e+01 5.272335422200e-01 
1.960810720601e+01 5.291384874746e-01 
1.983485907816e+01 5.212899084150e-01 
1.983485907816e+01 5.203907532695e-01 
1.983485907816e+01 5.221952527530e-01 
2.005934343268e+01 5.148176996059e-01 
2.005934343268e+01 5.139637142321e-01 
2.005934343268e+01 5.156773072420e-01 
2.028158294467e+01 5.087258360206e-01 
2.028158294467e+01 5.079129038876e-01 
2.028158294467e+01 5.095438978276e-01 
2.050160006120e+01 5.029793394597e-01 
2.050160006120e+01 5.022038552825e-01 
2.050160006120e+01 5.037595228549e-01 
2.071941700570e+01 4.975475663624e-01 
2.071941700570e+01 4.968063572303e-01 
2.071941700570e+01 4.982930965230e-01 
2.093505577995e+01 4.924035431729e-01 
2.093505577995e+01 4.916938040131e-01 
2.093505577995e+01 4.931172694135e-01 
2.114853816581e+01 4.875234215776e-01 
2.114853816581e+01 4.868426619865e-01 
2.114853816581e+01 4.882078719736e-01 
2.135988572703e+01 4.828860290104e-01 
2.135988572703e+01 4.822320291688e-01 
2.135988572703e+01 4.835434556392e-01 
2.156911981364e+01 4.784724953866e-01 
2.156911981364e+01 4.778432692872e-01 
2.156911981364e+01 4.791049120275e-01 
2.177626156092e+01 4.742659414614e-01 
2.177626156092e+01 4.736597060591e-01 
2.177626156092e+01 4.748751551902e-01 
2.198133189116e+01 4.702512170463e-01 
2.198133189116e+01 4.696663662404e-01 
2.198133189116e+01 4.708388548576e-01 
2.218435151784e+01 4.664146799526e-01 
2.218435151784e+01 4.658497625325e-01 
2.218435151784e+01 4.669822113062e-01 
2.238534094724e+01 4.627440084909e-01 
2.238534094724e+01 4.621977093527e-01 
2.238534094724e+01 4.632927644990e-01 
2.258432048250e+01 4.592280416007e-01 
2.258432048250e+01 4.586991656764e-01 
2.258432048250e+01 4.597592314307e-01 
2.278131022253e+01 4.558566420633e-01 
2.278131022253e+01 4.553441005127e-01 
2.278131022253e+01 4.563713670215e-01 
2.297633006606e+01 4.526205788065e-01 