 TITLE = "Profiles along polylines"
 VARIABLES = "DIST" "SATURATION1" 
 ZONE T="TIME=0.000000000000e+00"
0.000000000000e+00 1.000000000000e+00 
0.000000000000e+00 1.000000000000e+00 
4.228329442654e-01 1.000000000000e+00 
4.228329442654e-01 1.000000000000e+00 
8.414375614044e-01 1.000000000000e+00 
8.414375614044e-01 1.000000000000e+00 
1.255856131274e+00 1.000000000000e+00 
1.255856131274e+00 1.000000000000e+00 
1.666130515293e+00 1.000000000000e+00 
1.666130515293e+00 1.000000000000e+00 
2.072302156946e+00 1.000000000000e+00 
2.072302156946e+00 1.000000000000e+00 
2.474412082368e+00 1.000000000000e+00 
2.474412082368e+00 1.000000000000e+00 
2.872500908616e+00 1.000000000000e+00 
2.872500908616e+00 1.000000000000e+00 
3.266608846629e+00 1.000000000000e+00 
3.266608846629e+00 1.000000000000e+00 
3.656775704110e+00 1.000000000000e+00 
3.656775704110e+00 1.000000000000e+00 
4.043040890969e+00 1.000000000000e+00 
4.043040890969e+00 1.000000000000e+00 
4.425443427261e+00 1.000000000000e+00 
4.425443427261e+00 1.000000000000e+00 
4.804021937899e+00 1.000000000000e+00 
4.804021937899e+00 1.000000000000e+00 
5.178814663244e+00 1.000000000000e+00 
5.178814663244e+00 1.000000000000e+00 
5.549859461389e+00 1.000000000000e+00 
5.549859461389e+00 1.000000000000e+00 
5.917193810761e+00 1.000000000000e+00 
5.917193810761e+00 1.000000000000e+00 
6.280854817522e+00 1.000000000000e+00 
6.280854817522e+00 1.000000000000e+00 
6.640879212698e+00 1.000000000000e+00 
6.640879212698e+00 1.000000000000e+00 
6.997303364810e+00 1.000000000000e+00 
6.997303364810e+00 1.000000000000e+00 
7.350163276670e+00 1.000000000000e+00 
7.350163276670e+00 1.000000000000e+00 
7.699494590141e+00 1.000000000000e+00 
7.699494590141e+00 1.000000000000e+00 
8.045332590632e+00 1.000000000000e+00 
8.045332590632e+00 1.000000000000e+00 
8.387712209067e+00 1.000000000000e+00 
8.387712209067e+00 1.000000000000e+00 
8.726668031512e+00 1.000000000000e+00 
8.726668031512e+00 1.000000000000e+00 
9.062234295644e+00 1.000000000000e+00 
9.062234295644e+00 1.000000000000e+00 
9.394444897751e+00 1.000000000000e+00 
9.394444897751e+00 1.000000000000e+00 
9.723333394234e+00 1.000000000000e+00 
9.723333394234e+00 1.000000000000e+00 
1.004893300589e+01 1.000000000000e+00 
1.004893300589e+01 1.000000000000e+00 
1.037127662187e+01 1.000000000000e+00 
1.037127662187e+01 1.000000000000e+00 
1.069039680122e+01 1.000000000000e+00 
1.069039680122e+01 1.000000000000e+00 
1.100632577934e+01 1.000000000000e+00 
1.100632577934e+01 1.000000000000e+00 
1.131909546669e+01 1.000000000000e+00 
1.131909546669e+01 1.000000000000e+00 
1.162873745788e+01 1.000000000000e+00 
1.162873745788e+01 1.000000000000e+00 
1.193528303009e+01 1.000000000000e+00 
1.193528303009e+01 1.000000000000e+00 
1.223876314429e+01 1.000000000000e+00 
1.223876314429e+01 1.000000000000e+00 
1.253920845666e+01 1.000000000000e+00 
1.253920845666e+01 1.000000000000e+00 
1.283664931687e+01 1.000000000000e+00 
1.283664931687e+01 1.000000000000e+00 
1.313111576906e+01 1.000000000000e+00 
1.313111576906e+01 1.000000000000e+00 
1.342263755783e+01 1.000000000000e+00 
1.342263755783e+01 1.000000000000e+00 
1.371124412909e+01 1.000000000000e+00 
1.371124412909e+01 1.000000000000e+00 
1.399696463333e+01 1.000000000000e+00 
1.399696463333e+01 1.000000000000e+00 
1.427982793156e+01 1.000000000000e+00 
1.427982793156e+01 1.000000000000e+00 
1.455986259584e+01 1.000000000000e+00 
1.455986259584e+01 1.000000000000e+00 
1.483709691247e+01 1.000000000000e+00 
1.483709691247e+01 1.000000000000e+00 
1.511155888769e+01 1.000000000000e+00 
1.511155888769e+01 1.000000000000e+00 
1.538327624542e+01 1.000000000000e+00 
1.538327624542e+01 1.000000000000e+00 
1.565227643033e+01 1.000000000000e+00 
1.565227643033e+01 1.000000000000e+00 
1.591858661336e+01 1.000000000000e+00 
1.591858661336e+01 1.000000000000e+00 
1.618223369197e+01 1.000000000000e+00 
1.618223369197e+01 1.000000000000e+00 
1.644324429822e+01 1.000000000000e+00 
1.644324429822e+01 1.000000000000e+00 
1.670164479881e+01 1.000000000000e+00 
1.670164479881e+01 1.000000000000e+00 
1.695746129524e+01 1.000000000000e+00 
1.695746129524e+01 1.000000000000e+00 
1.721071962643e+01 1.000000000000e+00 
1.721071962643e+01 1.000000000000e+00 
1.746144537402e+01 1.000000000000e+00 
1.746144537402e+01 1.000000000000e+00 
1.770966386479e+01 1.000000000000e+00 
1.770966386479e+01 1.000000000000e+00 
1.795540017062e+01 1.000000000000e+00 
1.795540017062e+01 1.000000000000e+00 
1.819867911356e+01 1.000000000000e+00 
1.819867911356e+01 1.000000000000e+00 
1.843952526816e+01 1.000000000000e+00 
1.843952526816e+01 1.000000000000e+00 
1.867796296125e+01 1.000000000000e+00 
1.867796296125e+01 1.000000000000e+00 
1.891401627686e+01 1.000000000000e+00 
1.891401627686e+01 1.000000000000e+00 
1.914770905841e+01 1.000000000000e+00 
1.914770905841e+01 1.000000000000e+00 
1.937906491098e+01 1.000000000000e+00 
1.937906491098e+01 1.000000000000e+00 
1.960810720601e+01 1.000000000000e+00 
1.960810720601e+01 1.000000000000e+00 
1.983485907816e+01 1.000000000000e+00 
1.983485907816e+01 1.000000000000e+00 
2.005934343268e+01 1.000000000000e+00 
2.005934343268e+01 1.000000000000e+00 
2.028158294467e+01 1.000000000000e+00 
2.028158294467e+01 1.000000000000e+00 
2.050160006120e+01 1.000000000000e+00 
2.050160006120e+01 1.000000000000e+00 
2.071941700570e+01 1.000000000000e+00 
2.071941700570e+01 1.000000000000e+00 
2.093505577995e+01 1.000000000000e+00 
2.093505577995e+01 1.000000000000e+00 
2.114853816581e+01 1.000000000000e+00 
2.114853816581e+01 1.000000000000e+00 
2.135988572703e+01 1.000000000000e+00 
2.135988572703e+01 1.000000000000e+00 
2.156911981364e+01 1.000000000000e+00 
2.156911981364e+01 1.000000000000e+00 
2.177626156092e+01 1.000000000000e+00 
2.177626156092e+01 1.000000000000e+00 
2.198133189116e+01 1.000000000000e+00 
2.198133189116e+01 1.000000000000e+00 
2.218435151784e+01 1.000000000000e+00 
2.218435151784e+01 1.000000000000e+00 
2.238534094724e+01 1.000000000000e+00 
2.238534094724e+01 1.000000000000e+00 
2.258432048250e+01 1.000000000000e+00 
2.258432048250e+01 1.000000000000e+00 
2.278131022253e+01 1.000000000000e+00 
2.278131022253e+01 1.000000000000e+00 
2.297633006606e+01 1.000000000000e+00 
2.297633006606e+01 1.000000000000e+00 
2.316939971304e+01 1.000000000000e+00 
2.316939971304e+01 1.000000000000e+00 
2.336053866346e+01 1.000000000000e+00 
2.336053866346e+01 1.000000000000e+00 
2.354976622364e+01 1.000000000000e+00 
2.354976622364e+01 1.000000000000e+00 
2.373710150789e+01 1.000000000000e+00 
2.373710150789e+01 1.000000000000e+00 
2.392256343949e+01 1.000000000000e+00 
2.392256343949e+01 1.000000000000e+00 
2.410617075196e+01 1.000000000000e+00 
2.410617075196e+01 1.000000000000e+00 
2.428794199023e+01 1.000000000000e+00 
2.428794199023e+01 1.000000000000e+00 
2.446789551442e+01 1.000000000000e+00 
2.446789551442e+01 1.000000000000e+00 
2.464604950347e+01 1.000000000000e+00 
2.464604950347e+01 1.000000000000e+00 
2.482242195364e+01 1.000000000000e+00 
2.482242195364e+01 1.000000000000e+00 
2.499703067945e+01 1.000000000000e+00 
2.499703067945e+01 1.000000000000e+00 
2.516989331736e+01 1.000000000000e+00 
2.516989331736e+01 1.000000000000e+00 
2.534102732932e+01 1.000000000000e+00 
2.534102732932e+01 1.000000000000e+00 
2.551045000099e+01 1.000000000000e+00 
2.551045000099e+01 1.000000000000e+00 
2.567817844532e+01 1.000000000000e+00 
2.567817844532e+01 1.000000000000e+00 
2.584422960594e+01 1.000000000000e+00 
2.584422960594e+01 1.000000000000e+00 
2.600862025536e+01 1.000000000000e+00 
2.600862025536e+01 1.000000000000e+00 
2.617136699839e+01 1.000000000000e+00 
2.617136699839e+01 1.000000000000e+00 
2.633248627282e+01 1.000000000000e+00 
2.633248627282e+01 1.000000000000e+00 
2.649199435544e+01 1.000000000000e+00 
2.649199435544e+01 1.000000000000e+00 
2.664990735733e+01 1.000000000000e+00 
2.664990735733e+01 1.000000000000e+00 
2.680624122730e+01 1.000000000000e+00 
2.680624122730e+01 1.000000000000e+00 
2.696101176021e+01 1.000000000000e+00 
2.696101176021e+01 1.000000000000e+00 
2.711423458968e+01 1.000000000000e+00 
2.711423458968e+01 1.000000000000e+00 
2.726592519133e+01 1.000000000000e+00 
2.726592519133e+01 1.000000000000e+00 
2.741609888585e+01 1.000000000000e+00 
2.741609888585e+01 1.000000000000e+00 
2.756477084217e+01 1.000000000000e+00 
2.756477084217e+01 1.000000000000e+00 
2.771195607779e+01 1.000000000000e+00 
2.771195607779e+01 1.000000000000e+00 
2.785766946191e+01 1.000000000000e+00 
2.785766946191e+01 1.000000000000e+00 
2.800192571308e+01 1.000000000000e+00 
2.800192571308e+01 1.000000000000e+00 
2.814473939969e+01 1.000000000000e+00 
2.814473939969e+01 1.000000000000e+00 
2.828612495072e+01 1.000000000000e+00 
2.828612495072e+01 1.000000000000e+00 
2.842609664807e+01 1.000000000000e+00 
2.842609664807e+01 1.000000000000e+00 
2.856466862699e+01 1.000000000000e+00 
2.856466862699e+01 1.000000000000e+00 
2.870185488672e+01 1.000000000000e+00 
2.870185488672e+01 1.000000000000e+00 
2.883766928542e+01 1.000000000000e+00 
2.883766928542e+01 1.000000000000e+00 
2.897212553780e+01 1.000000000000e+00 
2.897212553780e+01 1.000000000000e+00 
2.910523722576e+01 1.000000000000e+00 
2.910523722576e+01 1.000000000000e+00 
2.923701779842e+01 1.000000000000e+00 
2.923701779842e+01 1.000000000000e+00 
2.936748056702e+01 1.000000000000e+00 
2.936748056702e+01 1.000000000000e+00 
2.949663870762e+01 1.000000000000e+00 
2.949663870762e+01 1.000000000000e+00 
2.962450526641e+01 1.000000000000e+00 
2.962450526641e+01 1.000000000000e+00 
2.975109315967e+01 1.000000000000e+00 
2.975109315967e+01 1.000000000000e+00 
2.987641517381e+01 1.000000000000e+00 
2.987641517381e+01 1.000000000000e+00 
3.000048396790e+01 1.000000000000e+00 
3.000048396790e+01 1.000000000000e+00 
3.012331207364e+01 1.000000000000e+00 
3.012331207364e+01 1.000000000000e+00 
3.024491189790e+01 1.000000000000e+00 
3.024491189790e+01 1.000000000000e+00 
3.036529572520e+01 1.000000000000e+00 
3.036529572520e+01 1.000000000000e+00 
3.048447571493e+01 1.000000000000e+00 
3.048447571493e+01 1.000000000000e+00 
3.060246390389e+01 1.000000000000e+00 
3.060246390389e+01 1.000000000000e+00 
3.071927221125e+01 1.000000000000e+00 
3.071927221125e+01 1.000000000000e+00 
3.083491243578e+01 1.000000000000e+00 
3.083491243578e+01 1.000000000000e+00 
3.094939625820e+01 1.000000000000e+00 
3.094939625820e+01 1.000000000000e+00 
3.106273524093e+01 1.000000000000e+00 
3.106273524093e+01 1.000000000000e+00 
3.117494083309e+01 1.000000000000e+00 
3.117494083309e+01 1.000000000000e+00 
3.128602437007e+01 1.000000000000e+00 
3.128602437007e+01 1.000000000000e+00 
3.139599707071e+01 1.000000000000e+00 
3.139599707071e+01 1.000000000000e+00 
3.150487004474e+01 1.000000000000e+00 
3.150487004474e+01 1.000000000000e+00 
3.161265428979e+01 1.000000000000e+00 
3.161265428979e+01 1.000000000000e+00 
3.171936069098e+01 1.000000000000e+00 
3.171936069098e+01 1.000000000000e+00 
3.182500002845e+01 1.000000000000e+00 
3.182500002845e+01 1.000000000000e+00 
3.192958297412e+01 1.000000000000e+00 
3.192958297412e+01 1.000000000000e+00 
3.203312008878e+01 1.000000000000e+00 
3.203312008878e+01 1.000000000000e+00 
3.213562183203e+01 1.000000000000e+00 
3.213562183203e+01 1.000000000000e+00 
3.223709855906e+01 1.000000000000e+00 
3.223709855906e+01 1.000000000000e+00 
3.233756051763e+01 1.000000000000e+00 
3.233756051763e+01 1.000000000000e+00 
3.243701785798e+01 1.000000000000e+00 
3.243701785798e+01 1.000000000000e+00 
3.253548062687e+01 1.000000000000e+00 
3.253548062687e+01 1.000000000000e+00 
3.263295876722e+01 1.000000000000e+00 
3.263295876722e+01 1.000000000000e+00 
3.272946212520e+01 1.000000000000e+00 
3.272946212520e+01 1.000000000000e+00 
3.282500044968e+01 1.000000000000e+00 
3.282500044968e+01 1.000000000000e+00 
3.291958339150e+01 1.000000000000e+00 
3.291958339150e+01 1.000000000000e+00 
3.301322050286e+01 1.000000000000e+00 
3.301322050286e+01 1.000000000000e+00 
3.310592124187e+01 1.000000000000e+00 
3.310592124187e+01 1.000000000000e+00 
3.319769497445e+01 1.000000000000e+00 
3.319769497445e+01 1.000000000000e+00 
3.328855097092e+01 1.000000000000e+00 
3.328855097092e+01 1.000000000000e+00 
3.337849840796e+01 1.000000000000e+00 
3.337849840796e+01 1.000000000000e+00 
3.346754637042e+01 1.000000000000e+00 
3.346754637042e+01 1.000000000000e+00 
3.355570385318e+01 1.000000000000e+00 
3.355570385318e+01 1.000000000000e+00 
3.364297976034e+01 1.000000000000e+00 
3.364297976034e+01 1.000000000000e+00 
3.372938290701e+01 1.000000000000e+00 
3.372938290701e+01 1.000000000000e+00 
3.381492202372e+01 1.000000000000e+00 
3.381492202372e+01 1.000000000000e+00 
3.389960575025e+01 1.000000000000e+00 
3.389960575025e+01 1.000000000000e+00 
3.398344263750e+01 1.000000000000e+00 
3.398344263750e+01 1.000000000000e+00 
3.406644115443e+01 1.000000000000e+00 
3.406644115443e+01 1.000000000000e+00 
3.414860968707e+01 1.000000000000e+00 
3.414860968707e+01 1.000000000000e+00 
3.422995653501e+01 1.000000000000e+00 
3.422995653501e+01 1.000000000000e+00 
3.431048991572e+01 1.000000000000e+00 
3.431048991572e+01 1.000000000000e+00 
3.439021796357e+01 1.000000000000e+00 
3.439021796357e+01 1.000000000000e+00 
3.446914872888e+01 1.000000000000e+00 
3.446914872888e+01 1.000000000000e+00 
3.454729018479e+01 1.000000000000e+00 
3.454729018479e+01 1.000000000000e+00 
3.462465022621e+01 1.000000000000e+00 
3.462465022621e+01 1.000000000000e+00 
3.470123666880e+01 1.000000000000e+00 
3.470123666880e+01 1.000000000000e+00 
3.477705724791e+01 1.000000000000e+00 
3.477705724791e+01 1.000000000000e+00 
3.485211962024e+01 1.000000000000e+00 
3.485211962024e+01 1.000000000000e+00 
3.492643136789e+01 1.000000000000e+00 
3.492643136789e+01 1.000000000000e+00 
3.500000000000e+01 1.000000000000e+00 
3.500000000000e+01 1.000000000000e+00 
 TITLE = "Profiles along polylines"
 VARIABLES = "DIST" "SATURATION1" 
 ZONE T="TIME=1.797693134862e+308"
0.000000000000e+00 1.000000000000e+00 
0.000000000000e+00 1.000000000000e+00 
4.228329442654e-01 1.000000000000e+00 
4.228329442654e-01 1.000000000000e+00 
8.414375614044e-01 1.000000000000e+00 
8.414375614044e-01 1.000000000000e+00 
1.255856131274e+00 1.000000000000e+00 
1.255856131274e+00 1.000000000000e+00 
1.666130515293e+00 1.000000000000e+00 
1.666130515293e+00 1.000000000000e+00 
2.072302156946e+00 1.000000000000e+00 
2.072302156946e+00 1.000000000000e+00 
2.474412082368e+00 1.000000000000e+00 
2.474412082368e+00 1.000000000000e+00 
2.872500908616e+00 1.000000000000e+00 
2.872500908616e+00 1.000000000000e+00 
3.266608846629e+00 1.000000000000e+00 
3.266608846629e+00 1.000000000000e+00 
3.656775704110e+00 1.000000000000e+00 
3.656775704110e+00 1.000000000000e+00 
4.043040890969e+00 1.000000000000e+00 
4.043040890969e+00 1.000000000000e+00 
4.425443427261e+00 1.000000000000e+00 
4.425443427261e+00 1.000000000000e+00 
4.804021937899e+00 1.000000000000e+00 
4.804021937899e+00 1.000000000000e+00 
5.178814663244e+00 1.000000000000e+00 
5.178814663244e+00 1.000000000000e+00 
5.549859461389e+00 1.000000000000e+00 
5.549859461389e+00 1.000000000000e+00 
5.917193810761e+00 1.000000000000e+00 
5.917193810761e+00 1.000000000000e+00 
6.280854817522e+00 1.000000000000e+00 
6.280854817522e+00 1.000000000000e+00 
6.640879212698e+00 1.000000000000e+00 
6.640879212698e+00 1.000000000000e+00 
6.997303364810e+00 1.000000000000e+00 
6.997303364810e+00 1.000000000000e+00 
7.350163276670e+00 1.000000000000e+00 
7.350163276670e+00 1.000000000000e+00 
7.699494590141e+00 1.000000000000e+00 
7.699494590141e+00 1.000000000000e+00 
8.045332590632e+00 1.000000000000e+00 
8.045332590632e+00 1.000000000000e+00 
8.387712209067e+00 1.000000000000e+00 
8.387712209067e+00 1.000000000000e+00 
8.726668031512e+00 1.000000000000e+00 
8.726668031512e+00 1.000000000000e+00 
9.062234295644e+00 1.000000000000e+00 
9.062234295644e+00 1.000000000000e+00 
9.394444897751e+00 1.000000000000e+00 
9.394444897751e+00 1.000000000000e+00 
9.723333394234e+00 1.000000000000e+00 
9.723333394234e+00 1.000000000000e+00 
1.004893300589e+01 1.000000000000e+00 
1.004893300589e+01 1.000000000000e+00 
1.037127662187e+01 1.000000000000e+00 
1.037127662187e+01 1.000000000000e+00 
1.069039680122e+01 1.000000000000e+00 
1.069039680122e+01 1.000000000000e+00 
1.100632577934e+01 1.000000000000e+00 
1.100632577934e+01 1.000000000000e+00 
1.131909546669e+01 1.000000000000e+00 
1.131909546669e+01 1.000000000000e+00 
1.162873745788e+01 1.000000000000e+00 
1.162873745788e+01 1.000000000000e+00 
1.193528303009e+01 1.000000000000e+00 
1.193528303009e+01 1.000000000000e+00 
1.223876314429e+01 1.000000000000e+00 
1.223876314429e+01 1.000000000000e+00 
1.253920845666e+01 1.000000000000e+00 
1.253920845666e+01 1.000000000000e+00 
1.283664931687e+01 1.000000000000e+00 
1.283664931687e+01 1.000000000000e+00 
1.313111576906e+01 1.000000000000e+00 
1.313111576906e+01 1.000000000000e+00 
1.342263755783e+01 1.000000000000e+00 
1.342263755783e+01 1.000000000000e+00 
1.371124412909e+01 1.000000000000e+00 
1.371124412909e+01 1.000000000000e+00 
1.399696463333e+01 1.000000000000e+00 
1.399696463333e+01 1.000000000000e+00 
1.427982793156e+01 1.000000000000e+00 
1.427982793156e+01 1.000000000000e+00 
1.455986259584e+01 1.000000000000e+00 
1.455986259584e+01 1.000000000000e+00 
1.483709691247e+01 1.000000000000e+00 
1.483709691247e+01 1.000000000000e+00 
1.511155888769e+01 1.000000000000e+00 
1.511155888769e+01 1.000000000000e+00 
1.538327624542e+01 1.000000000000e+00 
1.538327624542e+01 1.000000000000e+00 
1.565227643033e+01 1.000000000000e+00 
1.565227643033e+01 1.000000000000e+00 
1.591858661336e+01 1.000000000000e+00 
1.591858661336e+01 1.000000000000e+00 
1.618223369197e+01 1.000000000000e+00 
1.618223369197e+01 1.000000000000e+00 
1.644324429822e+01 1.000000000000e+00 
1.644324429822e+01 1.000000000000e+00 
1.670164479881e+01 1.000000000000e+00 
1.670164479881e+01 1.000000000000e+00 
1.695746129524e+01 1.000000000000e+00 
1.695746129524e+01 1.000000000000e+00 
1.721071962643e+01 1.000000000000e+00 
1.721071962643e+01 1.000000000000e+00 
1.746144537402e+01 1.000000000000e+00 
1.746144537402e+01 1.000000000000e+00 
1.770966386479e+01 1.000000000000e+00 
1.770966386479e+01 1.000000000000e+00 
1.795540017062e+01 1.000000000000e+00 
1.795540017062e+01 1.000000000000e+00 
1.819867911356e+01 1.000000000000e+00 
1.819867911356e+01 1.000000000000e+00 
1.843952526816e+01 1.000000000000e+00 
1.843952526816e+01 1.000000000000e+00 
1.867796296125e+01 9.843287736834e-01 
1.867796296125e+01 9.893197433258e-01 
1.891401627686e+01 9.330016741867e-01 
1.891401627686e+01 9.387711625848e-01 
1.914770905841e+01 8.837275422010e-01 
1.914770905841e+01 8.890288351209e-01 
1.937906491098e+01 8.402728563682e-01 
1.937906491098e+01 8.449282230397e-01 
1.960810720601e+01 8.027760016882e-01 
1.960810720601e+01 8.068285392794e-01 
1.983485907816e+01 7.704554493297e-01 
1.983485907816e+01 7.739945331432e-01 
2.005934343268e+01 7.424331311271e-01 
2.005934343268e+01 7.455461092936e-01 
2.028158294467e+01 7.179419521317e-01 
2.028158294467e+01 7.207027921312e-01 
2.050160006120e+01 6.963573025568e-01 
2.050160006120e+01 6.988259077638e-01 
2.071941700570e+01 6.771814677354e-01 
2.071941700570e+01 6.794057317762e-01 
2.093505577995e+01 6.600192419202e-01 
2.093505577995e+01 6.620374492534e-01 
2.114853816581e+01 6.445555330590e-01 
2.114853816581e+01 6.463984493964e-01 
2.135988572703e+01 6.305372690028e-01 
2.135988572703e+01 6.322298078591e-01 
2.156911981364e+01 6.177594243289e-01 
2.156911981364e+01 6.193219331546e-01 
2.177626156092e+01 6.060543982533e-01 
2.177626156092e+01 6.075036403744e-01 
2.198133189116e+01 5.952839632060e-01 
2.198133189116e+01 5.966338668932e-01 
2.218435151784e+01 5.853331424498e-01 
2.218435151784e+01 5.865953746512e-01 
2.238534094724e+01 5.761055257588e-01 
2.238534094724e+01 5.772899343894e-01 
2.258432048250e+01 5.675196575462e-01 
2.258432048250e+01 5.686346150546e-01 
2.278131022253e+01 5.595062290137e-01 
2.278131022253e+01 5.605589014345e-01 
2.297633006606e+01 5.520058764246e-01 
2.297633006606e+01 5.530024358049e-01 
2.316939971304e+01 5.449674404459e-01 
2.316939971304e+01 5.459132339207e-01 
2.336053866346e+01 5.383465787988e-01 
2.336053866346e+01 5.392462642159e-01 
2.354976622364e+01 5.321046515361e-01 
2.354976622364e+01 5.329623070631e-01 
2.373710150789e+01 5.262078190434e-01 
2.373710150789e+01 5.270270323844e-01 
2.392256343949e+01 5.206263068820e-01 
2.392256343949e+01 5.214102483907e-01 
2.410617075196e+01 5.153338025542e-01 
2.410617075196e+01 5.160852855381e-01 
2.428794199023e+01 5.103069573739e-01 
2.428794199023e+01 5.110284881373e-01 
2.446789551442e+01 5.055249725775e-01 
2.446789551442e+01 5.062187921892e-01 
2.464604950347e+01 5.009692535288e-01 
2.464604950347e+01 5.016373728746e-01 
2.482242195364e+01 4.966231193772e-01 
2.482242195364e+01 4.972673487310e-01 
2.499703067945e+01 4.924715578541e-01 
2.499703067945e+01 4.930935319460e-01 
2.516989331736e+01 4.885010171817e-01 
2.516989331736e+01 4.891022165492e-01 
2.534102732932e+01 4.846992287202e-01 
2.534102732932e+01 4.852809979727e-01 
2.551045000099e+01 4.810550552605e-01 
2.551045000099e+01 4.816186187717e-01 
2.567817844532e+01 4.775583605084e-01 
2.567817844532e+01 4.781048359497e-01 
2.584422960594e+01 4.741998964566e-01 
2.584422960594e+01 4.747303065159e-01 
2.600862025536e+01 4.709712059275e-01 
2.600862025536e+01 4.714864884916e-01 
2.617136699839e+01 4.678645377509e-01 
2.617136699839e+01 4.683655547844e-01 
2.633248627282e+01 4.648727728264e-01 
2.633248627282e+01 4.653603181394e-01 
2.649199435544e+01 4.619893593245e-01 
2.649199435544e+01 4.624641653889e-01 
2.664990735733e+01 4.592082559912e-01 
2.664990735733e+01 4.596709999422e-01 
2.680624122730e+01 4.565238820906e-01 
2.680624122730e+01 4.569751910230e-01 
2.696101176021e+01 4.539310731250e-01 
2.696101176021e+01 4.543715287825e-01 
2.711423458968e+01 4.514250418881e-01 
2.711423458968e+01 4.518551848254e-01 
2.726592519133e+01 4.490013437221e-01 
2.726592519133e+01 4.494216770082e-01 
2.741609888585e+01 4.466558456039e-01 
2.741609888585e+01 4.470668381252e-01 
2.756477084217e+01 4.443846985683e-01 
2.756477084217e+01 4.447867879824e-01 
2.771195607779e+01 4.421843130939e-01 
2.771195607779e+01 4.425779084755e-01 
2.785766946191e+01 4.400513370068e-01 
2.785766946191e+01 4.404368212243e-01 
2.800192571308e+01 4.379826357158e-01 
2.800192571308e+01 4.383603675701e-01 
2.814473939969e+01 4.359752743872e-01 
2.814473939969e+01 4.363455905400e-01 
2.828612495072e+01 4.340265017333e-01 
2.828612495072e+01 4.343897184491e-01 
2.842609664807e+01 4.321337356161e-01 
2.842609664807e+01 4.324901503388e-01 
2.856466862699e+01 4.302945499111e-01 
2.856466862699e+01 4.306444426941e-01 
2.870185488672e+01 4.285066624647e-01 
2.870185488672e+01 4.288502972693e-01 
2.883766928542e+01 4.267679243605e-01 
2.883766928542e+01 4.271055502372e-01 
2.897212553780e+01 4.250763101181e-01 
2.897212553780e+01 4.254081622841e-01 
2.910523722576e+01 4.234299086049e-01 
2.910523722576e+01 4.237562094259e-01 
2.923701779842e+01 4.218269148706e-01 
2.923701779842e+01 4.221478747596e-01 
2.936748056702e+01 4.202656227468e-01 
2.936748056702e+01 4.205814409862e-01 
2.949663870762e+01 4.187444179805e-01 
2.949663870762e+01 4.190552834765e-01 
2.962450526641e+01 4.172617719122e-01 
2.962450526641e+01 4.175678638865e-01 
2.975109315967e+01 4.158162357342e-01 
2.975109315967e+01 4.161177243604e-01 
2.987641517381e+01 4.144064352135e-01 
2.987641517381e+01 4.147034822026e-01 
3.000048396790e+01 4.130310658081e-01 
3.000048396790e+01 4.133238249480e-01 
3.012331207364e+01 4.116888881958e-01 
3.012331207364e+01 4.119775058496e-01 
3.024491189790e+01 4.103787241220e-01 
3.024491189790e+01 4.106633396878e-01 
3.036529572520e+01 4.090994525663e-01 
3.036529572520e+01 4.093801989027e-01 
3.048447571493e+01 4.078500062527e-01 
3.048447571493e+01 4.081270100725e-01 
3.060246390389e+01 4.066293683649e-01 
3.060246390389e+01 4.069027506005e-01 
3.071927221125e+01 4.054365694778e-01 
3.071927221125e+01 4.057064456200e-01 
3.083491243578e+01 4.042706847900e-01 
3.083491243578e+01 4.045371652025e-01 
3.094939625820e+01 4.031308315022e-01 
3.094939625820e+01 4.033940217141e-01 
3.106273524093e+01 4.020161664066e-01 
3.106273524093e+01 4.022761673850e-01 
3.117494083309e+01 4.009258835935e-01 
3.117494083309e+01 4.011827919970e-01 
3.128602437007e+01 3.998592123675e-01 
3.128602437007e+01 4.001131207826e-01 
3.139599707071e+01 3.988154153284e-01 
3.139599707071e+01 3.990664124903e-01 
3.150487004474e+01 3.977937864837e-01 
3.150487004474e+01 3.980419574825e-01 
3.161265428979e+01 3.967936495843e-01 
3.161265428979e+01 3.970390760578e-01 
3.171936069098e+01 3.958143565441e-01 
3.171936069098e+01 3.960571168580e-01 
3.182500002845e+01 3.948552858913e-01 
3.182500002845e+01 3.950954553085e-01 
3.192958297412e+01 3.939158414143e-01 
3.192958297412e+01 3.941534922524e-01 
3.203312008878e+01 3.929954508908e-01 
3.203312008878e+01 3.932306526711e-01 
3.213562183203e+01 3.920935647831e-01 
3.213562183203e+01 3.923263843701e-01 
3.223709855906e+01 3.912096551289e-01 
3.223709855906e+01 3.914401568605e-01 
3.233756051763e+01 3.903432144976e-01 
3.233756051763e+01 3.905714603088e-01 
3.243701785798e+01 3.894937549002e-01 
3.243701785798e+01 3.897198044384e-01 
3.253548062687e+01 3.886608068971e-01 
3.253548062687e+01 3.888847176312e-01 
3.263295876722e+01 3.878439187132e-01 
3.263295876722e+01 3.880657460361e-01 
3.272946212520e+01 3.870426553416e-01 
3.272946212520e+01 3.872624526671e-01 
3.282500044968e+01 3.862565977634e-01 
3.282500044968e+01 3.864744166172e-01 
3.291958339150e+01 3.854853422120e-01 
3.291958339150e+01 3.857012323180e-01 
3.301322050286e+01 3.847284994794e-01 
3.301322050286e+01 3.849425088407e-01 
3.310592124187e+01 3.839856942194e-01 
3.310592124187e+01 3.841978691954e-01 
3.319769497445e+01 3.834669496896e-01 
3.319769497445e+01 3.832565643106e-01 
3.328855097092e+01 3.827493993640e-01 
3.328855097092e+01 3.825407602963e-01 
3.337849840796e+01 3.818379448125e-01 
3.337849840796e+01 3.820448794174e-01 
3.346754637042e+01 3.811477920485e-01 
3.346754637042e+01 3.813530626632e-01 
3.355570385318e+01 3.804699872355e-01 
3.355570385318e+01 3.806736330153e-01 
3.364297976034e+01 3.798042261827e-01 
3.364297976034e+01 3.800062850207e-01 
3.372938290701e+01 3.791502148172e-01 
3.372938290701e+01 3.793507233971e-01 
3.381492202372e+01 3.785076687296e-01 
3.381492202372e+01 3.787066625753e-01 
3.389960575025e+01 3.778763128195e-01 
3.389960575025e+01 3.780738263428e-01 
3.398344263750e+01 3.772558809019e-01 
3.398344263750e+01 3.774519474470e-01 
3.406644115443e+01 3.766461152949e-01 
3.406644115443e+01 3.768407671816e-01 
3.414860968707e+01 3.760467664858e-01 
3.414860968707e+01 3.762400350496e-01 
3.422995653501e+01 3.754575928314e-01 
3.422995653501e+01 3.756495084628e-01 
3.431048991572e+01 3.748783602184e-01 
3.431048991572e+01 3.750689523993e-01 
3.439021796357e+01 3.743088417764e-01 
3.439021796357e+01 3.744981391153e-01 
3.446914872888e+01 3.737488176049e-01 
3.446914872888e+01 3.739368478705e-01 
3.454729018479e+01 3.731980744592e-01 
3.454729018479e+01 3.733848646120e-01 
3.462465022621e+01 3.726564055053e-01 
3.462465022621e+01 3.728419817278e-01 
3.470123666880e+01 3.721236100862e-01 
3.470123666880e+01 3.723079978125e-01 
3.477705724791e+01 3.715994935000e-01 
3.477705724791e+01 3.717827174427e-01 
3.485211962024e+01 3.710838667691e-01 
3.485211962024e+01 3.712659509463e-01 
3.492643136789e+01 3.705765464034e-01 
3.492643136789e+01 3.707575141636e-01 
3.500000000000e+01 3.700773521818e-01 
3.500000000000e+01 3.702572262196e-01 
