 TITLE = "Profiles along polylines"
 VARIABLES = "DIST" "SATURATION1" 
 ZONE T="TIME=0.000000000000e+00"
0.000000000000e+00 1.000000000000e+00 
4.228329442654e-01 1.000000000000e+00 
8.414375614044e-01 1.000000000000e+00 
1.255856131274e+00 1.000000000000e+00 
1.666130515293e+00 1.000000000000e+00 
2.072302156946e+00 1.000000000000e+00 
2.474412082368e+00 1.000000000000e+00 
2.872500908616e+00 1.000000000000e+00 
3.266608846629e+00 1.000000000000e+00 
3.656775704110e+00 1.000000000000e+00 
4.043040890969e+00 1.000000000000e+00 
4.425443427261e+00 1.000000000000e+00 
4.804021937899e+00 1.000000000000e+00 
5.178814663244e+00 1.000000000000e+00 
5.549859461389e+00 1.000000000000e+00 
5.917193810761e+00 1.000000000000e+00 
6.280854817522e+00 1.000000000000e+00 
6.640879212698e+00 1.000000000000e+00 
6.997303364810e+00 1.000000000000e+00 
7.350163276670e+00 1.000000000000e+00 
7.699494590141e+00 1.000000000000e+00 
8.045332590632e+00 1.000000000000e+00 
8.387712209067e+00 1.000000000000e+00 
8.726668031512e+00 1.000000000000e+00 
9.062234295644e+00 1.000000000000e+00 
9.394444897751e+00 1.000000000000e+00 
9.723333394234e+00 1.000000000000e+00 
1.004893300589e+01 1.000000000000e+00 
1.037127662187e+01 1.000000000000e+00 
1.069039680122e+01 1.000000000000e+00 
1.100632577934e+01 1.000000000000e+00 
1.131909546669e+01 1.000000000000e+00 
1.162873745788e+01 1.000000000000e+00 
1.193528303009e+01 1.000000000000e+00 
1.223876314429e+01 1.000000000000e+00 
1.253920845666e+01 1.000000000000e+00 
1.283664931687e+01 1.000000000000e+00 
1.313111576906e+01 1.000000000000e+00 
1.342263755783e+01 1.000000000000e+00 
1.371124412909e+01 1.000000000000e+00 
1.399696463333e+01 1.000000000000e+00 
1.427982793156e+01 1.000000000000e+00 
1.455986259584e+01 1.000000000000e+00 
1.483709691247e+01 1.000000000000e+00 
1.511155888769e+01 1.000000000000e+00 
1.538327624542e+01 1.000000000000e+00 
1.565227643033e+01 1.000000000000e+00 
1.591858661336e+01 1.000000000000e+00 
1.618223369197e+01 1.000000000000e+00 
1.644324429822e+01 1.000000000000e+00 
1.670164479881e+01 1.000000000000e+00 
1.695746129524e+01 1.000000000000e+00 
1.721071962643e+01 1.000000000000e+00 
1.746144537402e+01 1.000000000000e+00 
1.770966386479e+01 1.000000000000e+00 
1.795540017062e+01 1.000000000000e+00 
1.819867911356e+01 1.000000000000e+00 
1.843952526816e+01 1.000000000000e+00 
1.867796296125e+01 1.000000000000e+00 
1.891401627686e+01 1.000000000000e+00 
1.914770905841e+01 1.000000000000e+00 
1.937906491098e+01 1.000000000000e+00 
1.960810720601e+01 1.000000000000e+00 
1.983485907816e+01 1.000000000000e+00 
2.005934343268e+01 1.000000000000e+00 
2.028158294467e+01 1.000000000000e+00 
2.050160006120e+01 1.000000000000e+00 
2.071941700570e+01 1.000000000000e+00 
2.093505577995e+01 1.000000000000e+00 
2.114853816581e+01 1.000000000000e+00 
2.135988572703e+01 1.000000000000e+00 
2.156911981364e+01 1.000000000000e+00 
2.177626156092e+01 1.000000000000e+00 
2.198133189116e+01 1.000000000000e+00 
2.218435151784e+01 1.000000000000e+00 
2.238534094724e+01 1.000000000000e+00 
2.258432048250e+01 1.000000000000e+00 
2.278131022253e+01 1.000000000000e+00 
2.297633006606e+01 1.000000000000e+00 
2.316939971304e+01 1.000000000000e+00 
2.336053866346e+01 1.000000000000e+00 
2.354976622364e+01 1.000000000000e+00 
2.373710150789e+01 1.000000000000e+00 
2.392256343949e+01 1.000000000000e+00 
2.410617075196e+01 1.000000000000e+00 
2.428794199023e+01 1.000000000000e+00 
2.446789551442e+01 1.000000000000e+00 
2.464604950347e+01 1.000000000000e+00 
2.482242195364e+01 1.000000000000e+00 
2.499703067945e+01 1.000000000000e+00 
2.516989331736e+01 1.000000000000e+00 
2.534102732932e+01 1.000000000000e+00 
2.551045000099e+01 1.000000000000e+00 
2.567817844532e+01 1.000000000000e+00 
2.584422960594e+01 1.000000000000e+00 
2.600862025536e+01 1.000000000000e+00 
2.617136699839e+01 1.000000000000e+00 
2.633248627282e+01 1.000000000000e+00 
2.649199435544e+01 1.000000000000e+00 
2.664990735733e+01 1.000000000000e+00 
2.680624122730e+01 1.000000000000e+00 
2.696101176021e+01 1.000000000000e+00 
2.711423458968e+01 1.000000000000e+00 
2.726592519133e+01 1.000000000000e+00 
2.741609888585e+01 1.000000000000e+00 
2.756477084217e+01 1.000000000000e+00 
2.771195607779e+01 1.000000000000e+00 
2.785766946191e+01 1.000000000000e+00 
2.800192571308e+01 1.000000000000e+00 
2.814473939969e+01 1.000000000000e+00 
2.828612495072e+01 1.000000000000e+00 
2.842609664807e+01 1.000000000000e+00 
2.856466862699e+01 1.000000000000e+00 
2.870185488672e+01 1.000000000000e+00 
2.883766928542e+01 1.000000000000e+00 
2.897212553780e+01 1.000000000000e+00 
2.910523722576e+01 1.000000000000e+00 
2.923701779842e+01 1.000000000000e+00 
2.936748056702e+01 1.000000000000e+00 
2.949663870762e+01 1.000000000000e+00 
2.962450526641e+01 1.000000000000e+00 
2.975109315967e+01 1.000000000000e+00 
2.987641517381e+01 1.000000000000e+00 
3.000048396790e+01 1.000000000000e+00 
3.012331207364e+01 1.000000000000e+00 
3.024491189790e+01 1.000000000000e+00 
3.036529572520e+01 1.000000000000e+00 
3.048447571493e+01 1.000000000000e+00 
3.060246390389e+01 1.000000000000e+00 
3.071927221125e+01 1.000000000000e+00 
3.083491243578e+01 1.000000000000e+00 
3.094939625820e+01 1.000000000000e+00 
3.106273524093e+01 1.000000000000e+00 
3.117494083309e+01 1.000000000000e+00 
3.128602437007e+01 1.000000000000e+00 
3.139599707071e+01 1.000000000000e+00 
3.150487004474e+01 1.000000000000e+00 
3.161265428979e+01 1.000000000000e+00 
3.171936069098e+01 1.000000000000e+00 
3.182500002845e+01 1.000000000000e+00 
3.192958297412e+01 1.000000000000e+00 
3.203312008878e+01 1.000000000000e+00 
3.213562183203e+01 1.000000000000e+00 
3.223709855906e+01 1.000000000000e+00 
3.233756051763e+01 1.000000000000e+00 
3.243701785798e+01 1.000000000000e+00 
3.253548062687e+01 1.000000000000e+00 
3.263295876722e+01 1.000000000000e+00 
3.272946212520e+01 1.000000000000e+00 
3.282500044968e+01 1.000000000000e+00 
3.291958339150e+01 1.000000000000e+00 
3.301322050286e+01 1.000000000000e+00 
3.310592124187e+01 1.000000000000e+00 
3.319769497445e+01 1.000000000000e+00 
3.328855097092e+01 1.000000000000e+00 
3.337849840796e+01 1.000000000000e+00 
3.346754637042e+01 1.000000000000e+00 
3.355570385318e+01 1.000000000000e+00 
3.364297976034e+01 1.000000000000e+00 
3.372938290701e+01 1.000000000000e+00 
3.381492202372e+01 1.000000000000e+00 
3.389960575025e+01 1.000000000000e+00 
3.398344263750e+01 1.000000000000e+00 
3.406644115443e+01 1.000000000000e+00 
3.414860968707e+01 1.000000000000e+00 
3.422995653501e+01 1.000000000000e+00 
3.431048991572e+01 1.000000000000e+00 
3.439021796357e+01 1.000000000000e+00 
3.446914872888e+01 1.000000000000e+00 
3.454729018479e+01 1.000000000000e+00 
3.462465022621e+01 1.000000000000e+00 
3.470123666880e+01 1.000000000000e+00 
3.477705724791e+01 1.000000000000e+00 
3.485211962024e+01 1.000000000000e+00 
3.492643136789e+01 1.000000000000e+00 
3.500000000000e+01 1.000000000000e+00 
 TITLE = "Profiles along polylines"
 VARIABLES = "DIST" "SATURATION1" 
 ZONE T="TIME=1.797693134862e+308"
0.000000000000e+00 1.000000000000e+00 
4.228329442654e-01 1.000000000000e+00 
8.414375614044e-01 1.000000000000e+00 
1.255856131274e+00 1.000000000000e+00 
1.666130515293e+00 1.000000000000e+00 
2.072302156946e+00 1.000000000000e+00 
2.474412082368e+00 1.000000000000e+00 
2.872500908616e+00 1.000000000000e+00 
3.266608846629e+00 1.000000000000e+00 
3.656775704110e+00 1.000000000000e+00 
4.043040890969e+00 1.000000000000e+00 
4.425443427261e+00 1.000000000000e+00 
4.804021937899e+00 1.000000000000e+00 
5.178814663244e+00 1.000000000000e+00 
5.549859461389e+00 1.000000000000e+00 
5.917193810761e+00 1.000000000000e+00 
6.280854817522e+00 1.000000000000e+00 
6.640879212698e+00 1.000000000000e+00 
6.997303364810e+00 1.000000000000e+00 
7.350163276670e+00 1.000000000000e+00 
7.699494590141e+00 1.000000000000e+00 
8.045332590632e+00 1.000000000000e+00 
8.387712209067e+00 1.000000000000e+00 
8.726668031512e+00 1.000000000000e+00 
9.062234295644e+00 1.000000000000e+00 
9.394444897751e+00 1.000000000000e+00 
9.723333394234e+00 1.000000000000e+00 
1.004893300589e+01 1.000000000000e+00 
1.037127662187e+01 1.000000000000e+00 
1.069039680122e+01 1.000000000000e+00 
1.100632577934e+01 1.000000000000e+00 
1.131909546669e+01 1.000000000000e+00 
1.162873745788e+01 1.000000000000e+00 
1.193528303009e+01 1.000000000000e+00 
1.223876314429e+01 1.000000000000e+00 
1.253920845666e+01 1.000000000000e+00 
1.283664931687e+01 1.000000000000e+00 
1.313111576906e+01 1.000000000000e+00 
1.342263755783e+01 1.000000000000e+00 
1.371124412909e+01 1.000000000000e+00 
1.399696463333e+01 1.000000000000e+00 
1.427982793156e+01 1.000000000000e+00 
1.455986259584e+01 1.000000000000e+00 
1.483709691247e+01 1.000000000000e+00 
1.511155888769e+01 1.000000000000e+00 
1.538327624542e+01 1.000000000000e+00 
1.565227643033e+01 1.000000000000e+00 
1.591858661336e+01 1.000000000000e+00 
1.618223369197e+01 1.000000000000e+00 
1.644324429822e+01 1.000000000000e+00 
1.670164479881e+01 1.000000000000e+00 
1.695746129524e+01 1.000000000000e+00 
1.721071962643e+01 1.000000000000e+00 
1.746144537402e+01 1.000000000000e+00 
1.770966386479e+01 1.000000000000e+00 
1.795540017062e+01 1.000000000000e+00 
1.819867911356e+01 1.000000000000e+00 
1.843952526816e+01 1.000000000000e+00 
1.867796296125e+01 1.000000000000e+00 
1.891401627686e+01 1.000000000000e+00 
1.914770905841e+01 1.000000000000e+00 
1.937906491098e+01 1.000000000000e+00 
1.960810720601e+01 1.000000000000e+00 
1.983485907816e+01 1.000000000000e+00 
2.005934343268e+01 1.000000000000e+00 
2.028158294467e+01 1.000000000000e+00 
2.050160006120e+01 1.000000000000e+00 
2.071941700570e+01 1.000000000000e+00 
2.093505577995e+01 1.000000000000e+00 
2.114853816581e+01 1.000000000000e+00 
2.135988572703e+01 1.000000000000e+00 
2.156911981364e+01 1.000000000000e+00 
2.177626156092e+01 1.000000000000e+00 
2.198133189116e+01 9.927943908943e-01 
2.218435151784e+01 9.508549466875e-01 
2.238534094724e+01 9.072829297666e-01 
2.258432048250e+01 8.672062502234e-01 
2.278131022253e+01 8.316331463367e-01 
2.297633006606e+01 8.003481335102e-01 
2.316939971304e+01 7.728179113663e-01 
2.336053866346e+01 7.484836965554e-01 
2.354976622364e+01 7.268480751661e-01 
2.373710150789e+01 7.074922690949e-01 
2.392256343949e+01 6.900708874386e-01 
2.410617075196e+01 6.743007502102e-01 
2.428794199023e+01 6.599494776706e-01 
2.446789551442e+01 6.468255758574e-01 
2.464604950347e+01 6.347703284789e-01 
2.482242195364e+01 6.236513333031e-01 
2.499703067945e+01 6.133574002807e-01 
2.516989331736e+01 6.037945335999e-01 
2.534102732932e+01 5.948827616263e-01 
2.551045000099e+01 5.865536257547e-01 
2.567817844532e+01 5.787481801293e-01 
2.584422960594e+01 5.714153890243e-01 
2.600862025536e+01 5.645108350264e-01 
2.617136699839e+01 5.579956708006e-01 
2.633248627282e+01 5.518357635026e-01 
2.649199435544e+01 5.460009919217e-01 
2.664990735733e+01 5.404646662343e-01 
2.680624122730e+01 5.352030456789e-01 
2.696101176021e+01 5.301949355449e-01 
2.711423458968e+01 5.254213493048e-01 
2.726592519133e+01 5.208652232200e-01 
2.741609888585e+01 5.165111744167e-01 
2.756477084217e+01 5.123452948864e-01 
2.771195607779e+01 5.083549753931e-01 
2.785766946191e+01 5.045287541969e-01 
2.800192571308e+01 5.008561867852e-01 
2.814473939969e+01 4.973277330855e-01 
2.828612495072e+01 4.939346592870e-01 
2.842609664807e+01 4.906689527299e-01 
2.856466862699e+01 4.875232473208e-01 
2.870185488672e+01 4.844907579103e-01 
2.883766928542e+01 4.815652229225e-01 
2.897212553780e+01 4.787408536956e-01 
2.910523722576e+01 4.760122894134e-01 
2.923701779842e+01 4.733745573605e-01 
2.936748056702e+01 4.708230376885e-01 
2.949663870762e+01 4.683534318689e-01 
2.962450526641e+01 4.659617344700e-01 
2.975109315967e+01 4.636442079904e-01 
2.987641517381e+01 4.613973602815e-01 
3.000048396790e+01 4.592179242059e-01 
3.012331207364e+01 4.571028393611e-01 
3.024491189790e+01 4.550492355401e-01 
3.036529572520e+01 4.530544177797e-01 
3.048447571493e+01 4.511158529017e-01 
3.060246390389e+01 4.492311572164e-01 
3.071927221125e+01 4.473980853083e-01 
3.083491243578e+01 4.456145199478e-01 
3.094939625820e+01 4.438784628131e-01 
3.106273524093e+01 4.421880260581e-01 
3.117494083309e+01 4.405414245233e-01 
3.128602437007e+01 4.389369686819e-01 
3.139599707071e+01 4.373730582039e-01 
3.150487004474e+01 4.358481759023e-01 
3.161265428979e+01 4.343608823120e-01 
3.171936069098e+01 4.329098106610e-01 
3.182500002845e+01 4.314936621322e-01 
3.192958297412e+01 4.301112016297e-01 
3.203312008878e+01 4.287612538647e-01 
3.213562183203e+01 4.274426995693e-01 
3.223709855906e+01 4.261544721571e-01 
3.233756051763e+01 4.248955546264e-01 
3.243701785798e+01 4.236649765254e-01 
3.253548062687e+01 4.224618113273e-01 
3.263295876722e+01 4.212851739231e-01 
3.272946212520e+01 4.201342181981e-01 
3.282500044968e+01 4.190081348660e-01 
3.291958339150e+01 4.179061494496e-01 
3.301322050286e+01 4.168275203970e-01 
3.310592124187e+01 4.157715372614e-01 
3.319769497445e+01 4.147375190319e-01 
3.328855097092e+01 4.137248126280e-01 
3.337849840796e+01 4.127327914334e-01 
3.346754637042e+01 4.117608539222e-01 
3.355570385318e+01 4.108084223707e-01 
3.364297976034e+01 4.098749416772e-01 
3.372938290701e+01 4.089598782254e-01 
3.381492202372e+01 4.080627187893e-01 
3.389960575025e+01 4.071829696127e-01 
3.398344263750e+01 4.063201554604e-01 
3.406644115443e+01 4.054738186737e-01 
3.414860968707e+01 4.046435183591e-01 
3.422995653501e+01 4.038288296489e-01 
3.431048991572e+01 4.030293429268e-01 
3.439021796357e+01 4.022446631475e-01 
3.446914872888e+01 4.014744091945e-01 
3.454729018479e+01 4.007182131973e-01 
3.462465022621e+01 3.999757199615e-01 
3.470123666880e+01 3.992465864287e-01 
3.477705724791e+01 3.985304811659e-01 
3.485211962024e+01 3.978270838567e-01 
3.492643136789e+01 3.971360847956e-01 
3.500000000000e+01 3.964571808152e-01 
