 TITLE = "Profiles along polylines"
 VARIABLES = "DIST" "SATURATION1" 
 ZONE T="TIME=0.000000000000e+00"
0.000000000000e+00 1.000000000000e+00 
0.000000000000e+00 1.000000000000e+00 
0.000000000000e+00 1.000000000000e+00 
4.228329442654e-01 1.000000000000e+00 
4.228329442654e-01 1.000000000000e+00 
4.228329442654e-01 1.000000000000e+00 
8.414375614044e-01 1.000000000000e+00 
8.414375614044e-01 1.000000000000e+00 
8.414375614044e-01 1.000000000000e+00 
1.255856131274e+00 1.000000000000e+00 
1.255856131274e+00 1.000000000000e+00 
1.255856131274e+00 1.000000000000e+00 
1.666130515293e+00 1.000000000000e+00 
1.666130515293e+00 1.000000000000e+00 
1.666130515293e+00 1.000000000000e+00 
2.072302156946e+00 1.000000000000e+00 
2.072302156946e+00 1.000000000000e+00 
2.072302156946e+00 1.000000000000e+00 
2.474412082368e+00 1.000000000000e+00 
2.474412082368e+00 1.000000000000e+00 
2.474412082368e+00 1.000000000000e+00 
2.872500908616e+00 1.000000000000e+00 
2.872500908616e+00 1.000000000000e+00 
2.872500908616e+00 1.000000000000e+00 
3.266608846629e+00 1.000000000000e+00 
3.266608846629e+00 1.000000000000e+00 
3.266608846629e+00 1.000000000000e+00 
3.656775704110e+00 1.000000000000e+00 
3.656775704110e+00 1.000000000000e+00 
3.656775704110e+00 1.000000000000e+00 
4.043040890969e+00 1.000000000000e+00 
4.043040890969e+00 1.000000000000e+00 
4.043040890969e+00 1.000000000000e+00 
4.425443427261e+00 1.000000000000e+00 
4.425443427261e+00 1.000000000000e+00 
4.425443427261e+00 1.000000000000e+00 
4.804021937899e+00 1.000000000000e+00 
4.804021937899e+00 1.000000000000e+00 
4.804021937899e+00 1.000000000000e+00 
5.178814663244e+00 1.000000000000e+00 
5.178814663244e+00 1.000000000000e+00 
5.178814663244e+00 1.000000000000e+00 
5.549859461389e+00 1.000000000000e+00 
5.549859461389e+00 1.000000000000e+00 
5.549859461389e+00 1.000000000000e+00 
5.917193810761e+00 1.000000000000e+00 
5.917193810761e+00 1.000000000000e+00 
5.917193810761e+00 1.000000000000e+00 
6.280854817522e+00 1.000000000000e+00 
6.280854817522e+00 1.000000000000e+00 
6.280854817522e+00 1.000000000000e+00 
6.640879212698e+00 1.000000000000e+00 
6.640879212698e+00 1.000000000000e+00 
6.640879212698e+00 1.000000000000e+00 
6.997303364810e+00 1.000000000000e+00 
6.997303364810e+00 1.000000000000e+00 
6.997303364810e+00 1.000000000000e+00 
7.350163276670e+00 1.000000000000e+00 
7.350163276670e+00 1.000000000000e+00 
7.350163276670e+00 1.000000000000e+00 
7.699494590141e+00 1.000000000000e+00 
7.699494590141e+00 1.000000000000e+00 
7.699494590141e+00 1.000000000000e+00 
8.045332590632e+00 1.000000000000e+00 
8.045332590632e+00 1.000000000000e+00 
8.045332590632e+00 1.000000000000e+00 
8.387712209067e+00 1.000000000000e+00 
8.387712209067e+00 1.000000000000e+00 
8.387712209067e+00 1.000000000000e+00 
8.726668031512e+00 1.000000000000e+00 
8.726668031512e+00 1.000000000000e+00 
8.726668031512e+00 1.000000000000e+00 
9.062234295644e+00 1.000000000000e+00 
9.062234295644e+00 1.000000000000e+00 
9.062234295644e+00 1.000000000000e+00 
9.394444897751e+00 1.000000000000e+00 
9.394444897751e+00 1.000000000000e+00 
9.394444897751e+00 1.000000000000e+00 
9.723333394234e+00 1.000000000000e+00 
9.723333394234e+00 1.000000000000e+00 
9.723333394234e+00 1.000000000000e+00 
1.004893300589e+01 1.000000000000e+00 
1.004893300589e+01 1.000000000000e+00 
1.004893300589e+01 1.000000000000e+00 
1.037127662187e+01 1.000000000000e+00 
1.037127662187e+01 1.000000000000e+00 
1.037127662187e+01 1.000000000000e+00 
1.069039680122e+01 1.000000000000e+00 
1.069039680122e+01 1.000000000000e+00 
1.069039680122e+01 1.000000000000e+00 
1.100632577934e+01 1.000000000000e+00 
1.100632577934e+01 1.000000000000e+00 
1.100632577934e+01 1.000000000000e+00 
1.131909546669e+01 1.000000000000e+00 
1.131909546669e+01 1.000000000000e+00 
1.131909546669e+01 1.000000000000e+00 
1.162873745788e+01 1.000000000000e+00 
1.162873745788e+01 1.000000000000e+00 
1.162873745788e+01 1.000000000000e+00 
1.193528303009e+01 1.000000000000e+00 
1.193528303009e+01 1.000000000000e+00 
1.193528303009e+01 1.000000000000e+00 
1.223876314429e+01 1.000000000000e+00 
1.223876314429e+01 1.000000000000e+00 
1.223876314429e+01 1.000000000000e+00 
1.253920845666e+01 1.000000000000e+00 
1.253920845666e+01 1.000000000000e+00 
1.253920845666e+01 1.000000000000e+00 
1.283664931687e+01 1.000000000000e+00 
1.283664931687e+01 1.000000000000e+00 
1.283664931687e+01 1.000000000000e+00 
1.313111576906e+01 1.000000000000e+00 
1.313111576906e+01 1.000000000000e+00 
1.313111576906e+01 1.000000000000e+00 
1.342263755783e+01 1.000000000000e+00 
1.342263755783e+01 1.000000000000e+00 
1.342263755783e+01 1.000000000000e+00 
1.371124412909e+01 1.000000000000e+00 
1.371124412909e+01 1.000000000000e+00 
1.371124412909e+01 1.000000000000e+00 
1.399696463333e+01 1.000000000000e+00 
1.399696463333e+01 1.000000000000e+00 
1.399696463333e+01 1.000000000000e+00 
1.427982793156e+01 1.000000000000e+00 
1.427982793156e+01 1.000000000000e+00 
1.427982793156e+01 1.000000000000e+00 
1.455986259584e+01 1.000000000000e+00 
1.455986259584e+01 1.000000000000e+00 
1.455986259584e+01 1.000000000000e+00 
1.483709691247e+01 1.000000000000e+00 
1.483709691247e+01 1.000000000000e+00 
1.483709691247e+01 1.000000000000e+00 
1.511155888769e+01 1.000000000000e+00 
1.511155888769e+01 1.000000000000e+00 
1.511155888769e+01 1.000000000000e+00 
1.538327624542e+01 1.000000000000e+00 
1.538327624542e+01 1.000000000000e+00 
1.538327624542e+01 1.000000000000e+00 
1.565227643033e+01 1.000000000000e+00 
1.565227643033e+01 1.000000000000e+00 
1.565227643033e+01 1.000000000000e+00 
1.591858661336e+01 1.000000000000e+00 
1.591858661336e+01 1.000000000000e+00 
1.591858661336e+01 1.000000000000e+00 
1.618223369197e+01 1.000000000000e+00 
1.618223369197e+01 1.000000000000e+00 
1.618223369197e+01 1.000000000000e+00 
1.644324429822e+01 1.000000000000e+00 
1.644324429822e+01 1.000000000000e+00 
1.644324429822e+01 1.000000000000e+00 
1.670164479881e+01 1.000000000000e+00 
1.670164479881e+01 1.000000000000e+00 
1.670164479881e+01 1.000000000000e+00 
1.695746129524e+01 1.000000000000e+00 
1.695746129524e+01 1.000000000000e+00 
1.695746129524e+01 1.000000000000e+00 
1.721071962643e+01 1.000000000000e+00 
1.721071962643e+01 1.000000000000e+00 
1.721071962643e+01 1.000000000000e+00 
1.746144537402e+01 1.000000000000e+00 
1.746144537402e+01 1.000000000000e+00 
1.746144537402e+01 1.000000000000e+00 
1.770966386479e+01 1.000000000000e+00 
1.770966386479e+01 1.000000000000e+00 
1.770966386479e+01 1.000000000000e+00 
1.795540017062e+01 1.000000000000e+00 
1.795540017062e+01 1.000000000000e+00 
1.795540017062e+01 1.000000000000e+00 
1.819867911356e+01 1.000000000000e+00 
1.819867911356e+01 1.000000000000e+00 
1.819867911356e+01 1.000000000000e+00 
1.843952526816e+01 1.000000000000e+00 
1.843952526816e+01 1.000000000000e+00 
1.843952526816e+01 1.000000000000e+00 
1.867796296125e+01 1.000000000000e+00 
1.867796296125e+01 1.000000000000e+00 
1.867796296125e+01 1.000000000000e+00 
1.891401627686e+01 1.000000000000e+00 
1.891401627686e+01 1.000000000000e+00 
1.891401627686e+01 1.000000000000e+00 
1.914770905841e+01 1.000000000000e+00 
1.914770905841e+01 1.000000000000e+00 
1.914770905841e+01 1.000000000000e+00 
1.937906491098e+01 1.000000000000e+00 
1.937906491098e+01 1.000000000000e+00 
1.937906491098e+01 1.000000000000e+00 
1.960810720601e+01 1.000000000000e+00 
1.960810720601e+01 1.000000000000e+00 
1.960810720601e+01 1.000000000000e+00 
1.983485907816e+01 1.000000000000e+00 
1.983485907816e+01 1.000000000000e+00 
1.983485907816e+01 1.000000000000e+00 
2.005934343268e+01 1.000000000000e+00 
2.005934343268e+01 1.000000000000e+00 
2.005934343268e+01 1.000000000000e+00 
2.028158294467e+01 1.000000000000e+00 
2.028158294467e+01 1.000000000000e+00 
2.028158294467e+01 1.000000000000e+00 
2.050160006120e+01 1.000000000000e+00 
2.050160006120e+01 1.000000000000e+00 
2.050160006120e+01 1.000000000000e+00 
2.071941700570e+01 1.000000000000e+00 
2.071941700570e+01 1.000000000000e+00 
2.071941700570e+01 1.000000000000e+00 
2.093505577995e+01 1.000000000000e+00 
2.093505577995e+01 1.000000000000e+00 
2.093505577995e+01 1.000000000000e+00 
2.114853816581e+01 1.000000000000e+00 
2.114853816581e+01 1.000000000000e+00 
2.114853816581e+01 1.000000000000e+00 
2.135988572703e+01 1.000000000000e+00 
2.135988572703e+01 1.000000000000e+00 
2.135988572703e+01 1.000000000000e+00 
2.156911981364e+01 1.000000000000e+00 
2.156911981364e+01 1.000000000000e+00 
2.156911981364e+01 1.000000000000e+00 
2.177626156092e+01 1.000000000000e+00 
2.177626156092e+01 1.000000000000e+00 
2.177626156092e+01 1.000000000000e+00 
2.198133189116e+01 1.000000000000e+00 
2.198133189116e+01 1.000000000000e+00 
2.198133189116e+01 1.000000000000e+00 
2.218435151784e+01 1.000000000000e+00 
2.218435151784e+01 1.000000000000e+00 
2.218435151784e+01 1.000000000000e+00 
2.238534094724e+01 1.000000000000e+00 
2.238534094724e+01 1.000000000000e+00 
2.238534094724e+01 1.000000000000e+00 
2.258432048250e+01 1.000000000000e+00 
2.258432048250e+01 1.000000000000e+00 
2.258432048250e+01 1.000000000000e+00 
2.278131022253e+01 1.000000000000e+00 
2.278131022253e+01 1.000000000000e+00 
2.278131022253e+01 1.000000000000e+00 
2.297633006606e+01 1.000000000000e+00 
2.297633006606e+01 1.000000000000e+00 
2.297633006606e+01 1.000000000000e+00 
2.316939971304e+01 1.000000000000e+00 
2.316939971304e+01 1.000000000000e+00 
2.316939971304e+01 1.000000000000e+00 
2.336053866346e+01 1.000000000000e+00 
2.336053866346e+01 1.000000000000e+00 
2.336053866346e+01 1.000000000000e+00 
2.354976622364e+01 1.000000000000e+00 
2.354976622364e+01 1.000000000000e+00 
2.354976622364e+01 1.000000000000e+00 
2.373710150789e+01 1.000000000000e+00 
2.373710150789e+01 1.000000000000e+00 
2.373710150789e+01 1.000000000000e+00 
2.392256343949e+01 1.000000000000e+00 
2.392256343949e+01 1.000000000000e+00 
2.392256343949e+01 1.000000000000e+00 
2.410617075196e+01 1.000000000000e+00 
2.410617075196e+01 1.000000000000e+00 
2.410617075196e+01 1.000000000000e+00 
2.428794199023e+01 1.000000000000e+00 
2.428794199023e+01 1.000000000000e+00 
2.428794199023e+01 1.000000000000e+00 
2.446789551442e+01 1.000000000000e+00 
2.446789551442e+01 1.000000000000e+00 
2.446789551442e+01 1.000000000000e+00 
2.464604950347e+01 1.000000000000e+00 
2.464604950347e+01 1.000000000000e+00 
2.464604950347e+01 1.000000000000e+00 
2.482242195364e+01 1.000000000000e+00 
2.482242195364e+01 1.000000000000e+00 
2.482242195364e+01 1.000000000000e+00 
2.499703067945e+01 1.000000000000e+00 
2.499703067945e+01 1.000000000000e+00 
2.499703067945e+01 1.000000000000e+00 
2.516989331736e+01 1.000000000000e+00 
2.516989331736e+01 1.000000000000e+00 
2.516989331736e+01 1.000000000000e+00 
2.534102732932e+01 1.000000000000e+00 
2.534102732932e+01 1.000000000000e+00 
2.534102732932e+01 1.000000000000e+00 
2.551045000099e+01 1.000000000000e+00 
2.551045000099e+01 1.000000000000e+00 
2.551045000099e+01 1.000000000000e+00 
2.567817844532e+01 1.000000000000e+00 
2.567817844532e+01 1.000000000000e+00 
2.567817844532e+01 1.000000000000e+00 
2.584422960594e+01 1.000000000000e+00 
2.584422960594e+01 1.000000000000e+00 
2.584422960594e+01 1.000000000000e+00 
2.600862025536e+01 1.000000000000e+00 
2.600862025536e+01 1.000000000000e+00 
2.600862025536e+01 1.000000000000e+00 
2.617136699839e+01 1.000000000000e+00 
2.617136699839e+01 1.000000000000e+00 
2.617136699839e+01 1.000000000000e+00 
2.633248627282e+01 1.000000000000e+00 
2.633248627282e+01 1.000000000000e+00 
2.633248627282e+01 1.000000000000e+00 
2.649199435544e+01 1.000000000000e+00 
2.649199435544e+01 1.000000000000e+00 
2.649199435544e+01 1.000000000000e+00 
2.664990735733e+01 1.000000000000e+00 
2.664990735733e+01 1.000000000000e+00 
2.664990735733e+01 1.000000000000e+00 
2.680624122730e+01 1.000000000000e+00 
2.680624122730e+01 1.000000000000e+00 
2.680624122730e+01 1.000000000000e+00 
2.696101176021e+01 1.000000000000e+00 
2.696101176021e+01 1.000000000000e+00 
2.696101176021e+01 1.000000000000e+00 
2.711423458968e+01 1.000000000000e+00 
2.711423458968e+01 1.000000000000e+00 
2.711423458968e+01 1.000000000000e+00 
2.726592519133e+01 1.000000000000e+00 
2.726592519133e+01 1.000000000000e+00 
2.726592519133e+01 1.000000000000e+00 
2.741609888585e+01 1.000000000000e+00 
2.741609888585e+01 1.000000000000e+00 
2.741609888585e+01 1.000000000000e+00 
2.756477084217e+01 1.000000000000e+00 
2.756477084217e+01 1.000000000000e+00 
2.756477084217e+01 1.000000000000e+00 
2.771195607779e+01 1.000000000000e+00 
2.771195607779e+01 1.000000000000e+00 
2.771195607779e+01 1.000000000000e+00 
2.785766946191e+01 1.000000000000e+00 
2.785766946191e+01 1.000000000000e+00 
2.785766946191e+01 1.000000000000e+00 
2.800192571308e+01 1.000000000000e+00 
2.800192571308e+01 1.000000000000e+00 
2.800192571308e+01 1.000000000000e+00 
2.814473939969e+01 1.000000000000e+00 
2.814473939969e+01 1.000000000000e+00 
2.814473939969e+01 1.000000000000e+00 
2.828612495072e+01 1.000000000000e+00 
2.828612495072e+01 1.000000000000e+00 
2.828612495072e+01 1.000000000000e+00 
2.842609664807e+01 1.000000000000e+00 
2.842609664807e+01 1.000000000000e+00 
2.842609664807e+01 1.000000000000e+00 
2.856466862699e+01 1.000000000000e+00 
2.856466862699e+01 1.000000000000e+00 
2.856466862699e+01 1.000000000000e+00 
2.870185488672e+01 1.000000000000e+00 
2.870185488672e+01 1.000000000000e+00 
2.870185488672e+01 1.000000000000e+00 
2.883766928542e+01 1.000000000000e+00 
2.883766928542e+01 1.000000000000e+00 
2.883766928542e+01 1.000000000000e+00 
2.897212553780e+01 1.000000000000e+00 
2.897212553780e+01 1.000000000000e+00 
2.897212553780e+01 1.000000000000e+00 
2.910523722576e+01 1.000000000000e+00 
2.910523722576e+01 1.000000000000e+00 
2.910523722576e+01 1.000000000000e+00 
2.923701779842e+01 1.000000000000e+00 
2.923701779842e+01 1.000000000000e+00 
2.923701779842e+01 1.000000000000e+00 
2.936748056702e+01 1.000000000000e+00 
2.936748056702e+01 1.000000000000e+00 
2.936748056702e+01 1.000000000000e+00 
2.949663870762e+01 1.000000000000e+00 
2.949663870762e+01 1.000000000000e+00 
2.949663870762e+01 1.000000000000e+00 
2.962450526641e+01 1.000000000000e+00 
2.962450526641e+01 1.000000000000e+00 
2.962450526641e+01 1.000000000000e+00 
2.975109315967e+01 1.000000000000e+00 
2.975109315967e+01 1.000000000000e+00 
2.975109315967e+01 1.000000000000e+00 
2.987641517381e+01 1.000000000000e+00 
2.987641517381e+01 1.000000000000e+00 
2.987641517381e+01 1.000000000000e+00 
3.000048396790e+01 1.000000000000e+00 
3.000048396790e+01 1.000000000000e+00 
3.000048396790e+01 1.000000000000e+00 
3.012331207364e+01 1.000000000000e+00 
3.012331207364e+01 1.000000000000e+00 
3.012331207364e+01 1.000000000000e+00 
3.024491189790e+01 1.000000000000e+00 
3.024491189790e+01 1.000000000000e+00 
3.024491189790e+01 1.000000000000e+00 
3.036529572520e+01 1.000000000000e+00 
3.036529572520e+01 1.000000000000e+00 
3.036529572520e+01 1.000000000000e+00 
3.048447571493e+01 1.000000000000e+00 
3.048447571493e+01 1.000000000000e+00 
3.048447571493e+01 1.000000000000e+00 
3.060246390389e+01 1.000000000000e+00 
3.060246390389e+01 1.000000000000e+00 
3.060246390389e+01 1.000000000000e+00 
3.071927221125e+01 1.000000000000e+00 
3.071927221125e+01 1.000000000000e+00 
3.071927221125e+01 1.000000000000e+00 
3.083491243578e+01 1.000000000000e+00 
3.083491243578e+01 1.000000000000e+00 
3.083491243578e+01 1.000000000000e+00 
3.094939625820e+01 1.000000000000e+00 
3.094939625820e+01 1.000000000000e+00 
3.094939625820e+01 1.000000000000e+00 
3.106273524093e+01 1.000000000000e+00 
3.106273524093e+01 1.000000000000e+00 
3.106273524093e+01 1.000000000000e+00 
3.117494083309e+01 1.000000000000e+00 
3.117494083309e+01 1.000000000000e+00 
3.117494083309e+01 1.000000000000e+00 
3.128602437007e+01 1.000000000000e+00 
3.128602437007e+01 1.000000000000e+00 
3.128602437007e+01 1.000000000000e+00 
3.139599707071e+01 1.000000000000e+00 
3.139599707071e+01 1.000000000000e+00 
3.139599707071e+01 1.000000000000e+00 
3.150487004474e+01 1.000000000000e+00 
3.150487004474e+01 1.000000000000e+00 
3.150487004474e+01 1.000000000000e+00 
3.161265428979e+01 1.000000000000e+00 
3.161265428979e+01 1.000000000000e+00 
3.161265428979e+01 1.000000000000e+00 
3.171936069098e+01 1.000000000000e+00 
3.171936069098e+01 1.000000000000e+00 
3.171936069098e+01 1.000000000000e+00 
3.182500002845e+01 1.000000000000e+00 
3.182500002845e+01 1.000000000000e+00 
3.182500002845e+01 1.000000000000e+00 
3.192958297412e+01 1.000000000000e+00 
3.192958297412e+01 1.000000000000e+00 
3.192958297412e+01 1.000000000000e+00 
3.203312008878e+01 1.000000000000e+00 
3.203312008878e+01 1.000000000000e+00 
3.203312008878e+01 1.000000000000e+00 
3.213562183203e+01 1.000000000000e+00 
3.213562183203e+01 1.000000000000e+00 
3.213562183203e+01 1.000000000000e+00 
3.223709855906e+01 1.000000000000e+00 
3.223709855906e+01 1.000000000000e+00 
3.223709855906e+01 1.000000000000e+00 
3.233756051763e+01 1.000000000000e+00 
3.233756051763e+01 1.000000000000e+00 
3.233756051763e+01 1.000000000000e+00 
3.243701785798e+01 1.000000000000e+00 
3.243701785798e+01 1.000000000000e+00 
3.243701785798e+01 1.000000000000e+00 
3.253548062687e+01 1.000000000000e+00 
3.253548062687e+01 1.000000000000e+00 
3.253548062687e+01 1.000000000000e+00 
3.263295876722e+01 1.000000000000e+00 
3.263295876722e+01 1.000000000000e+00 
3.263295876722e+01 1.000000000000e+00 
3.272946212520e+01 1.000000000000e+00 
3.272946212520e+01 1.000000000000e+00 
3.272946212520e+01 1.000000000000e+00 
3.282500044968e+01 1.000000000000e+00 
3.282500044968e+01 1.000000000000e+00 
3.282500044968e+01 1.000000000000e+00 
3.291958339150e+01 1.000000000000e+00 
3.291958339150e+01 1.000000000000e+00 
3.291958339150e+01 1.000000000000e+00 
3.301322050286e+01 1.000000000000e+00 
3.301322050286e+01 1.000000000000e+00 
3.301322050286e+01 1.000000000000e+00 
3.310592124187e+01 1.000000000000e+00 
3.310592124187e+01 1.000000000000e+00 
3.310592124187e+01 1.000000000000e+00 
3.319769497445e+01 1.000000000000e+00 
3.319769497445e+01 1.000000000000e+00 
3.319769497445e+01 1.000000000000e+00 
3.328855097092e+01 1.000000000000e+00 
3.328855097092e+01 1.000000000000e+00 
3.328855097092e+01 1.000000000000e+00 
3.337849840796e+01 1.000000000000e+00 
3.337849840796e+01 1.000000000000e+00 
3.337849840796e+01 1.000000000000e+00 
3.346754637042e+01 1.000000000000e+00 
3.346754637042e+01 1.000000000000e+00 
3.346754637042e+01 1.000000000000e+00 
3.355570385318e+01 1.000000000000e+00 
3.355570385318e+01 1.000000000000e+00 
3.355570385318e+01 1.000000000000e+00 
3.364297976034e+01 1.000000000000e+00 
3.364297976034e+01 1.000000000000e+00 
3.364297976034e+01 1.000000000000e+00 
3.372938290701e+01 1.000000000000e+00 
3.372938290701e+01 1.000000000000e+00 
3.372938290701e+01 1.000000000000e+00 
3.381492202372e+01 1.000000000000e+00 
3.381492202372e+01 1.000000000000e+00 
3.381492202372e+01 1.000000000000e+00 
3.389960575025e+01 1.000000000000e+00 
3.389960575025e+01 1.000000000000e+00 
3.389960575025e+01 1.000000000000e+00 
3.398344263750e+01 1.000000000000e+00 
3.398344263750e+01 1.000000000000e+00 
3.398344263750e+01 1.000000000000e+00 
3.406644115443e+01 1.000000000000e+00 
3.406644115443e+01 1.000000000000e+00 
3.406644115443e+01 1.000000000000e+00 
3.414860968707e+01 1.000000000000e+00 
3.414860968707e+01 1.000000000000e+00 
3.414860968707e+01 1.000000000000e+00 
3.422995653501e+01 1.000000000000e+00 
3.422995653501e+01 1.000000000000e+00 
3.422995653501e+01 1.000000000000e+00 
3.431048991572e+01 1.000000000000e+00 
3.431048991572e+01 1.000000000000e+00 
3.431048991572e+01 1.000000000000e+00 
3.439021796357e+01 1.000000000000e+00 
3.439021796357e+01 1.000000000000e+00 
3.439021796357e+01 1.000000000000e+00 
3.446914872888e+01 1.000000000000e+00 
3.446914872888e+01 1.000000000000e+00 
3.446914872888e+01 1.000000000000e+00 
3.454729018479e+01 1.000000000000e+00 
3.454729018479e+01 1.000000000000e+00 
3.454729018479e+01 1.000000000000e+00 
3.462465022621e+01 1.000000000000e+00 
3.462465022621e+01 1.000000000000e+00 
3.462465022621e+01 1.000000000000e+00 
3.470123666880e+01 1.000000000000e+00 
3.470123666880e+01 1.000000000000e+00 
3.470123666880e+01 1.000000000000e+00 
3.477705724791e+01 1.000000000000e+00 
3.477705724791e+01 1.000000000000e+00 
3.477705724791e+01 1.000000000000e+00 
3.485211962024e+01 1.000000000000e+00 
3.485211962024e+01 1.000000000000e+00 
3.485211962024e+01 1.000000000000e+00 
3.492643136789e+01 1.000000000000e+00 
3.492643136789e+01 1.000000000000e+00 
3.492643136789e+01 1.000000000000e+00 
3.500000000000e+01 1.000000000000e+00 
3.500000000000e+01 1.000000000000e+00 
3.500000000000e+01 1.000000000000e+00 
 TITLE = "Profiles along polylines"
 VARIABLES = "DIST" "SATURATION1" 
 ZONE T="TIME=1.797693134862e+308"
0.000000000000e+00 1.000000000000e+00 
0.000000000000e+00 1.000000000000e+00 
0.000000000000e+00 1.000000000000e+00 
4.228329442654e-01 1.000000000000e+00 
4.228329442654e-01 1.000000000000e+00 
4.228329442654e-01 1.000000000000e+00 
8.414375614044e-01 1.000000000000e+00 
8.414375614044e-01 1.000000000000e+00 
8.414375614044e-01 1.000000000000e+00 
1.255856131274e+00 1.000000000000e+00 
1.255856131274e+00 1.000000000000e+00 
1.255856131274e+00 1.000000000000e+00 
1.666130515293e+00 1.000000000000e+00 
1.666130515293e+00 1.000000000000e+00 
1.666130515293e+00 1.000000000000e+00 
2.072302156946e+00 1.000000000000e+00 
2.072302156946e+00 1.000000000000e+00 
2.072302156946e+00 1.000000000000e+00 
2.474412082368e+00 1.000000000000e+00 
2.474412082368e+00 1.000000000000e+00 
2.474412082368e+00 1.000000000000e+00 
2.872500908616e+00 1.000000000000e+00 
2.872500908616e+00 1.000000000000e+00 
2.872500908616e+00 1.000000000000e+00 
3.266608846629e+00 1.000000000000e+00 
3.266608846629e+00 1.000000000000e+00 
3.266608846629e+00 1.000000000000e+00 
3.656775704110e+00 1.000000000000e+00 
3.656775704110e+00 1.000000000000e+00 
3.656775704110e+00 1.000000000000e+00 
4.043040890969e+00 1.000000000000e+00 
4.043040890969e+00 1.000000000000e+00 
4.043040890969e+00 1.000000000000e+00 
4.425443427261e+00 1.000000000000e+00 
4.425443427261e+00 1.000000000000e+00 
4.425443427261e+00 1.000000000000e+00 
4.804021937899e+00 1.000000000000e+00 
4.804021937899e+00 1.000000000000e+00 
4.804021937899e+00 1.000000000000e+00 
5.178814663244e+00 1.000000000000e+00 
5.178814663244e+00 1.000000000000e+00 
5.178814663244e+00 1.000000000000e+00 
5.549859461389e+00 1.000000000000e+00 
5.549859461389e+00 1.000000000000e+00 
5.549859461389e+00 1.000000000000e+00 
5.917193810761e+00 1.000000000000e+00 
5.917193810761e+00 1.000000000000e+00 
5.917193810761e+00 1.000000000000e+00 
6.280854817522e+00 1.000000000000e+00 
6.280854817522e+00 1.000000000000e+00 
6.280854817522e+00 1.000000000000e+00 
6.640879212698e+00 1.000000000000e+00 
6.640879212698e+00 1.000000000000e+00 
6.640879212698e+00 1.000000000000e+00 
6.997303364810e+00 1.000000000000e+00 
6.997303364810e+00 1.000000000000e+00 
6.997303364810e+00 1.000000000000e+00 
7.350163276670e+00 1.000000000000e+00 
7.350163276670e+00 1.000000000000e+00 
7.350163276670e+00 1.000000000000e+00 
7.699494590141e+00 1.000000000000e+00 
7.699494590141e+00 1.000000000000e+00 
7.699494590141e+00 1.000000000000e+00 
8.045332590632e+00 1.000000000000e+00 
8.045332590632e+00 1.000000000000e+00 
8.045332590632e+00 1.000000000000e+00 
8.387712209067e+00 1.000000000000e+00 
8.387712209067e+00 1.000000000000e+00 
8.387712209067e+00 1.000000000000e+00 
8.726668031512e+00 1.000000000000e+00 
8.726668031512e+00 1.000000000000e+00 
8.726668031512e+00 1.000000000000e+00 
9.062234295644e+00 1.000000000000e+00 
9.062234295644e+00 1.000000000000e+00 
9.062234295644e+00 1.000000000000e+00 
9.394444897751e+00 1.000000000000e+00 
9.394444897751e+00 1.000000000000e+00 
9.394444897751e+00 1.000000000000e+00 
9.723333394234e+00 1.000000000000e+00 
9.723333394234e+00 1.000000000000e+00 
9.723333394234e+00 1.000000000000e+00 
1.004893300589e+01 1.000000000000e+00 
1.004893300589e+01 1.000000000000e+00 
1.004893300589e+01 1.000000000000e+00 
1.037127662187e+01 1.000000000000e+00 
1.037127662187e+01 1.000000000000e+00 
1.037127662187e+01 1.000000000000e+00 
1.069039680122e+01 1.000000000000e+00 
1.069039680122e+01 1.000000000000e+00 
1.069039680122e+01 1.000000000000e+00 
1.100632577934e+01 1.000000000000e+00 
1.100632577934e+01 1.000000000000e+00 
1.100632577934e+01 1.000000000000e+00 
1.131909546669e+01 1.000000000000e+00 
1.131909546669e+01 1.000000000000e+00 
1.131909546669e+01 1.000000000000e+00 
1.162873745788e+01 1.000000000000e+00 
1.162873745788e+01 1.000000000000e+00 
1.162873745788e+01 1.000000000000e+00 
1.193528303009e+01 1.000000000000e+00 
1.193528303009e+01 1.000000000000e+00 
1.193528303009e+01 1.000000000000e+00 
1.223876314429e+01 1.000000000000e+00 
1.223876314429e+01 1.000000000000e+00 
1.223876314429e+01 1.000000000000e+00 
1.253920845666e+01 1.000000000000e+00 
1.253920845666e+01 1.000000000000e+00 
1.253920845666e+01 1.000000000000e+00 
1.283664931687e+01 1.000000000000e+00 
1.283664931687e+01 1.000000000000e+00 
1.283664931687e+01 1.000000000000e+00 
1.313111576906e+01 1.000000000000e+00 
1.313111576906e+01 1.000000000000e+00 
1.313111576906e+01 1.000000000000e+00 
1.342263755783e+01 1.000000000000e+00 
1.342263755783e+01 1.000000000000e+00 
1.342263755783e+01 1.000000000000e+00 
1.371124412909e+01 1.000000000000e+00 
1.371124412909e+01 1.000000000000e+00 
1.371124412909e+01 1.000000000000e+00 
1.399696463333e+01 1.000000000000e+00 
1.399696463333e+01 1.000000000000e+00 
1.399696463333e+01 1.000000000000e+00 
1.427982793156e+01 1.000000000000e+00 
1.427982793156e+01 1.000000000000e+00 
1.427982793156e+01 1.000000000000e+00 
1.455986259584e+01 1.000000000000e+00 
1.455986259584e+01 1.000000000000e+00 
1.455986259584e+01 1.000000000000e+00 
1.483709691247e+01 1.000000000000e+00 
1.483709691247e+01 1.000000000000e+00 
1.483709691247e+01 1.000000000000e+00 
1.511155888769e+01 1.000000000000e+00 
1.511155888769e+01 1.000000000000e+00 
1.511155888769e+01 1.000000000000e+00 
1.538327624542e+01 1.000000000000e+00 
1.538327624542e+01 1.000000000000e+00 
1.538327624542e+01 1.000000000000e+00 
1.565227643033e+01 1.000000000000e+00 
1.565227643033e+01 1.000000000000e+00 
1.565227643033e+01 1.000000000000e+00 
1.591858661336e+01 1.000000000000e+00 
1.591858661336e+01 1.000000000000e+00 
1.591858661336e+01 1.000000000000e+00 
1.618223369197e+01 9.698184290318e-01 
1.618223369197e+01 9.632553044678e-01 
1.618223369197e+01 9.762442097899e-01 
1.644324429822e+01 9.123067468300e-01 
1.644324429822e+01 9.060719561980e-01 
1.644324429822e+01 9.186717907624e-01 
1.670164479881e+01 8.603875486049e-01 
1.670164479881e+01 8.549269557166e-01 
1.670164479881e+01 8.659904460152e-01 
1.695746129524e+01 8.159537476821e-01 
1.695746129524e+01 8.112732232752e-01 
1.695746129524e+01 8.207560935664e-01 
1.721071962643e+01 7.782796106423e-01 
1.721071962643e+01 7.742616255665e-01 
1.721071962643e+01 7.823955674072e-01 
1.746144537402e+01 7.461692857761e-01 
1.746144537402e+01 7.426908814621e-01 
1.746144537402e+01 7.497252246850e-01 
1.770966386479e+01 7.154988388950e-01 
1.770966386479e+01 7.185407628431e-01 
1.770966386479e+01 7.216440687281e-01 
1.795540017062e+01 6.945237831621e-01 
1.795540017062e+01 6.918367978499e-01 
1.795540017062e+01 6.972597076515e-01 
1.819867911356e+01 6.734405395666e-01 
1.819867911356e+01 6.710449282871e-01 
1.819867911356e+01 6.758755605219e-01 
1.843952526816e+01 6.547657315783e-01 
1.843952526816e+01 6.526118759431e-01 
1.843952526816e+01 6.569516786663e-01 
1.867796296125e+01 6.380900716043e-01 
1.867796296125e+01 6.361389437663e-01 
1.867796296125e+01 6.400676328515e-01 
1.891401627686e+01 6.230916583796e-01 
1.891401627686e+01 6.213122525094e-01 
1.891401627686e+01 6.248930849344e-01 
1.914770905841e+01 6.095145767984e-01 
1.914770905841e+01 6.078819962455e-01 
1.914770905841e+01 6.111657031878e-01 
1.937906491098e+01 5.971531247123e-01 
1.937906491098e+01 5.956471662228e-01 
1.937906491098e+01 5.986748651630e-01 
1.960810720601e+01 5.858401903161e-01 
1.960810720601e+01 5.844442928997e-01 
1.960810720601e+01 5.872496490579e-01 
1.983485907816e+01 5.754386372461e-01 
1.983485907816e+01 5.741390960229e-01 
1.983485907816e+01 5.767499378249e-01 
2.005934343268e+01 5.658348619194e-01 
2.005934343268e+01 5.646202346990e-01 
2.005934343268e+01 5.670597720817e-01 
2.028158294467e+01 5.569339277355e-01 
2.028158294467e+01 5.557945825963e-01 
2.028158294467e+01 5.580823348542e-01 
2.050160006120e+01 5.486558516498e-01 
2.050160006120e+01 5.475836185313e-01 
2.050160006120e+01 5.497361280358e-01 
2.071941700570e+01 5.409327410376e-01 
2.071941700570e+01 5.399206407794e-01 
2.071941700570e+01 5.419520273991e-01 
2.093505577995e+01 5.337065643044e-01 
2.093505577995e+01 5.327485959122e-01 
2.093505577995e+01 5.346709917862e-01 
2.114853816581e+01 5.269273983546e-01 
2.114853816581e+01 5.260183704675e-01 
2.114853816581e+01 5.278422640488e-01 
2.135988572703e+01 5.205520384627e-01 
2.135988572703e+01 5.196874346936e-01 
2.135988572703e+01 5.214219453411e-01 
2.156911981364e+01 5.145428861260e-01 
2.156911981364e+01 5.137187565972e-01 
2.156911981364e+01 5.153718555189e-01 
2.177626156092e+01 5.088670523553e-01 
2.177626156092e+01 5.080799256668e-01 
2.177626156092e+01 5.096586150634e-01 
2.198133189116e+01 5.034956290058e-01 
2.198133189116e+01 5.027424402742e-01 
2.198133189116e+01 5.042528996417e-01 
2.218435151784e+01 4.984030924374e-01 
2.218435151784e+01 4.976811240753e-01 
2.218435151784e+01 4.991288305005e-01 
2.238534094724e+01 4.935668123222e-01 
2.238534094724e+01 4.928736449907e-01 
2.238534094724e+01 4.942634726996e-01 
2.258432048250e+01 4.889666443892e-01 
2.258432048250e+01 4.883001161336e-01 
2.258432048250e+01 4.896364193691e-01 
2.278131022253e+01 4.845845909262e-01 
2.278131022253e+01 4.839427629351e-01 
2.278131022253e+01 4.852294453519e-01 
2.297633006606e+01 4.804045159617e-01 