 TITLE = "Profiles along polylines"
 VARIABLES = "DIST" "SATURATION1" 
 ZONE T="TIME=0.000000000000e+00"
0.000000000000e+00 1.000000000000e+00 
0.000000000000e+00 1.000000000000e+00 
4.228329442654e-01 1.000000000000e+00 
4.228329442654e-01 1.000000000000e+00 
8.414375614044e-01 1.000000000000e+00 
8.414375614044e-01 1.000000000000e+00 
1.255856131274e+00 1.000000000000e+00 
1.255856131274e+00 1.000000000000e+00 
1.666130515293e+00 1.000000000000e+00 
1.666130515293e+00 1.000000000000e+00 
2.072302156946e+00 1.000000000000e+00 
2.072302156946e+00 1.000000000000e+00 
2.474412082368e+00 1.000000000000e+00 
2.474412082368e+00 1.000000000000e+00 
2.872500908616e+00 1.000000000000e+00 
2.872500908616e+00 1.000000000000e+00 
3.266608846629e+00 1.000000000000e+00 
3.266608846629e+00 1.000000000000e+00 
3.656775704110e+00 1.000000000000e+00 
3.656775704110e+00 1.000000000000e+00 
4.043040890969e+00 1.000000000000e+00 
4.043040890969e+00 1.000000000000e+00 
4.425443427261e+00 1.000000000000e+00 
4.425443427261e+00 1.000000000000e+00 
4.804021937899e+00 1.000000000000e+00 
4.804021937899e+00 1.000000000000e+00 
5.178814663244e+00 1.000000000000e+00 
5.178814663244e+00 1.000000000000e+00 
5.549859461389e+00 1.000000000000e+00 
5.549859461389e+00 1.000000000000e+00 
5.917193810761e+00 1.000000000000e+00 
5.917193810761e+00 1.000000000000e+00 
6.280854817522e+00 1.000000000000e+00 
6.280854817522e+00 1.000000000000e+00 
6.640879212698e+00 1.000000000000e+00 
6.640879212698e+00 1.000000000000e+00 
6.997303364810e+00 1.000000000000e+00 
6.997303364810e+00 1.000000000000e+00 
7.350163276670e+00 1.000000000000e+00 
7.350163276670e+00 1.000000000000e+00 
7.699494590141e+00 1.000000000000e+00 
7.699494590141e+00 1.000000000000e+00 
8.045332590632e+00 1.000000000000e+00 
8.045332590632e+00 1.000000000000e+00 
8.387712209067e+00 1.000000000000e+00 
8.387712209067e+00 1.000000000000e+00 
8.726668031512e+00 1.000000000000e+00 
8.726668031512e+00 1.000000000000e+00 
9.062234295644e+00 1.000000000000e+00 
9.062234295644e+00 1.000000000000e+00 
9.394444897751e+00 1.000000000000e+00 
9.394444897751e+00 1.000000000000e+00 
9.723333394234e+00 1.000000000000e+00 
9.723333394234e+00 1.000000000000e+00 
1.004893300589e+01 1.000000000000e+00 
1.004893300589e+01 1.000000000000e+00 
1.037127662187e+01 1.000000000000e+00 
1.037127662187e+01 1.000000000000e+00 
1.069039680122e+01 1.000000000000e+00 
1.069039680122e+01 1.000000000000e+00 
1.100632577934e+01 1.000000000000e+00 
1.100632577934e+01 1.000000000000e+00 
1.131909546669e+01 1.000000000000e+00 
1.131909546669e+01 1.000000000000e+00 
1.162873745788e+01 1.000000000000e+00 
1.162873745788e+01 1.000000000000e+00 
1.193528303009e+01 1.000000000000e+00 
1.193528303009e+01 1.000000000000e+00 
1.223876314429e+01 1.000000000000e+00 
1.223876314429e+01 1.000000000000e+00 
1.253920845666e+01 1.000000000000e+00 
1.253920845666e+01 1.000000000000e+00 
1.283664931687e+01 1.000000000000e+00 
1.283664931687e+01 1.000000000000e+00 
1.313111576906e+01 1.000000000000e+00 
1.313111576906e+01 1.000000000000e+00 
1.342263755783e+01 1.000000000000e+00 
1.342263755783e+01 1.000000000000e+00 
1.371124412909e+01 1.000000000000e+00 
1.371124412909e+01 1.000000000000e+00 
1.399696463333e+01 1.000000000000e+00 
1.399696463333e+01 1.000000000000e+00 
1.427982793156e+01 1.000000000000e+00 
1.427982793156e+01 1.000000000000e+00 
1.455986259584e+01 1.000000000000e+00 
1.455986259584e+01 1.000000000000e+00 
1.483709691247e+01 1.000000000000e+00 
1.483709691247e+01 1.000000000000e+00 
1.511155888769e+01 1.000000000000e+00 
1.511155888769e+01 1.000000000000e+00 
1.538327624542e+01 1.000000000000e+00 
1.538327624542e+01 1.000000000000e+00 
1.565227643033e+01 1.000000000000e+00 
1.565227643033e+01 1.000000000000e+00 
1.591858661336e+01 1.000000000000e+00 
1.591858661336e+01 1.000000000000e+00 
1.618223369197e+01 1.000000000000e+00 
1.618223369197e+01 1.000000000000e+00 
1.644324429822e+01 1.000000000000e+00 
1.644324429822e+01 1.000000000000e+00 
1.670164479881e+01 1.000000000000e+00 
1.670164479881e+01 1.000000000000e+00 
1.695746129524e+01 1.000000000000e+00 
1.695746129524e+01 1.000000000000e+00 
1.721071962643e+01 1.000000000000e+00 
1.721071962643e+01 1.000000000000e+00 
1.746144537402e+01 1.000000000000e+00 
1.746144537402e+01 1.000000000000e+00 
1.770966386479e+01 1.000000000000e+00 
1.770966386479e+01 1.000000000000e+00 
1.795540017062e+01 1.000000000000e+00 
1.795540017062e+01 1.000000000000e+00 
1.819867911356e+01 1.000000000000e+00 
1.819867911356e+01 1.000000000000e+00 
1.843952526816e+01 1.000000000000e+00 
1.843952526816e+01 1.000000000000e+00 
1.867796296125e+01 1.000000000000e+00 
1.867796296125e+01 1.000000000000e+00 
1.891401627686e+01 1.000000000000e+00 
1.891401627686e+01 1.000000000000e+00 
1.914770905841e+01 1.000000000000e+00 
1.914770905841e+01 1.000000000000e+00 
1.937906491098e+01 1.000000000000e+00 
1.937906491098e+01 1.000000000000e+00 
1.960810720601e+01 1.000000000000e+00 
1.960810720601e+01 1.000000000000e+00 
1.983485907816e+01 1.000000000000e+00 
1.983485907816e+01 1.000000000000e+00 
2.005934343268e+01 1.000000000000e+00 
2.005934343268e+01 1.000000000000e+00 
2.028158294467e+01 1.000000000000e+00 
2.028158294467e+01 1.000000000000e+00 
2.050160006120e+01 1.000000000000e+00 
2.050160006120e+01 1.000000000000e+00 
2.071941700570e+01 1.000000000000e+00 
2.071941700570e+01 1.000000000000e+00 
2.093505577995e+01 1.000000000000e+00 
2.093505577995e+01 1.000000000000e+00 
2.114853816581e+01 1.000000000000e+00 
2.114853816581e+01 1.000000000000e+00 
2.135988572703e+01 1.000000000000e+00 
2.135988572703e+01 1.000000000000e+00 
2.156911981364e+01 1.000000000000e+00 
2.156911981364e+01 1.000000000000e+00 
2.177626156092e+01 1.000000000000e+00 
2.177626156092e+01 1.000000000000e+00 
2.198133189116e+01 1.000000000000e+00 
2.198133189116e+01 1.000000000000e+00 
2.218435151784e+01 1.000000000000e+00 
2.218435151784e+01 1.000000000000e+00 
2.238534094724e+01 1.000000000000e+00 
2.238534094724e+01 1.000000000000e+00 
2.258432048250e+01 1.000000000000e+00 
2.258432048250e+01 1.000000000000e+00 
2.278131022253e+01 1.000000000000e+00 
2.278131022253e+01 1.000000000000e+00 
2.297633006606e+01 1.000000000000e+00 
2.297633006606e+01 1.000000000000e+00 
2.316939971304e+01 1.000000000000e+00 
2.316939971304e+01 1.000000000000e+00 
2.336053866346e+01 1.000000000000e+00 
2.336053866346e+01 1.000000000000e+00 
2.354976622364e+01 1.000000000000e+00 
2.354976622364e+01 1.000000000000e+00 
2.373710150789e+01 1.000000000000e+00 
2.373710150789e+01 1.000000000000e+00 
2.392256343949e+01 1.000000000000e+00 
2.392256343949e+01 1.000000000000e+00 
2.410617075196e+01 1.000000000000e+00 
2.410617075196e+01 1.000000000000e+00 
2.428794199023e+01 1.000000000000e+00 
2.428794199023e+01 1.000000000000e+00 
2.446789551442e+01 1.000000000000e+00 
2.446789551442e+01 1.000000000000e+00 
2.464604950347e+01 1.000000000000e+00 
2.464604950347e+01 1.000000000000e+00 
2.482242195364e+01 1.000000000000e+00 
2.482242195364e+01 1.000000000000e+00 
2.499703067945e+01 1.000000000000e+00 
2.499703067945e+01 1.000000000000e+00 
2.516989331736e+01 1.000000000000e+00 
2.516989331736e+01 1.000000000000e+00 
2.534102732932e+01 1.000000000000e+00 
2.534102732932e+01 1.000000000000e+00 
2.551045000099e+01 1.000000000000e+00 
2.551045000099e+01 1.000000000000e+00 
2.567817844532e+01 1.000000000000e+00 
2.567817844532e+01 1.000000000000e+00 
2.584422960594e+01 1.000000000000e+00 
2.584422960594e+01 1.000000000000e+00 
2.600862025536e+01 1.000000000000e+00 
2.600862025536e+01 1.000000000000e+00 
2.617136699839e+01 1.000000000000e+00 
2.617136699839e+01 1.000000000000e+00 
2.633248627282e+01 1.000000000000e+00 
2.633248627282e+01 1.000000000000e+00 
2.649199435544e+01 1.000000000000e+00 
2.649199435544e+01 1.000000000000e+00 
2.664990735733e+01 1.000000000000e+00 
2.664990735733e+01 1.000000000000e+00 
2.680624122730e+01 1.000000000000e+00 
2.680624122730e+01 1.000000000000e+00 
2.696101176021e+01 1.000000000000e+00 
2.696101176021e+01 1.000000000000e+00 
2.711423458968e+01 1.000000000000e+00 
2.711423458968e+01 1.000000000000e+00 
2.726592519133e+01 1.000000000000e+00 
2.726592519133e+01 1.000000000000e+00 
2.741609888585e+01 1.000000000000e+00 
2.741609888585e+01 1.000000000000e+00 
2.756477084217e+01 1.000000000000e+00 
2.756477084217e+01 1.000000000000e+00 
2.771195607779e+01 1.000000000000e+00 
2.771195607779e+01 1.000000000000e+00 
2.785766946191e+01 1.000000000000e+00 
2.785766946191e+01 1.000000000000e+00 
2.800192571308e+01 1.000000000000e+00 
2.800192571308e+01 1.000000000000e+00 
2.814473939969e+01 1.000000000000e+00 
2.814473939969e+01 1.000000000000e+00 
2.828612495072e+01 1.000000000000e+00 
2.828612495072e+01 1.000000000000e+00 
2.842609664807e+01 1.000000000000e+00 
2.842609664807e+01 1.000000000000e+00 
2.856466862699e+01 1.000000000000e+00 
2.856466862699e+01 1.000000000000e+00 
2.870185488672e+01 1.000000000000e+00 
2.870185488672e+01 1.000000000000e+00 
2.883766928542e+01 1.000000000000e+00 
2.883766928542e+01 1.000000000000e+00 
2.897212553780e+01 1.000000000000e+00 
2.897212553780e+01 1.000000000000e+00 
2.910523722576e+01 1.000000000000e+00 
2.910523722576e+01 1.000000000000e+00 
2.923701779842e+01 1.000000000000e+00 
2.923701779842e+01 1.000000000000e+00 
2.936748056702e+01 1.000000000000e+00 
2.936748056702e+01 1.000000000000e+00 
2.949663870762e+01 1.000000000000e+00 
2.949663870762e+01 1.000000000000e+00 
2.962450526641e+01 1.000000000000e+00 
2.962450526641e+01 1.000000000000e+00 
2.975109315967e+01 1.000000000000e+00 
2.975109315967e+01 1.000000000000e+00 
2.987641517381e+01 1.000000000000e+00 
2.987641517381e+01 1.000000000000e+00 
3.000048396790e+01 1.000000000000e+00 
3.000048396790e+01 1.000000000000e+00 
3.012331207364e+01 1.000000000000e+00 
3.012331207364e+01 1.000000000000e+00 
3.024491189790e+01 1.000000000000e+00 
3.024491189790e+01 1.000000000000e+00 
3.036529572520e+01 1.000000000000e+00 
3.036529572520e+01 1.000000000000e+00 
3.048447571493e+01 1.000000000000e+00 
3.048447571493e+01 1.000000000000e+00 
3.060246390389e+01 1.000000000000e+00 
3.060246390389e+01 1.000000000000e+00 
3.071927221125e+01 1.000000000000e+00 
3.071927221125e+01 1.000000000000e+00 
3.083491243578e+01 1.000000000000e+00 
3.083491243578e+01 1.000000000000e+00 
3.094939625820e+01 1.000000000000e+00 
3.094939625820e+01 1.000000000000e+00 
3.106273524093e+01 1.000000000000e+00 
3.106273524093e+01 1.000000000000e+00 
3.117494083309e+01 1.000000000000e+00 
3.117494083309e+01 1.000000000000e+00 
3.128602437007e+01 1.000000000000e+00 
3.128602437007e+01 1.000000000000e+00 
3.139599707071e+01 1.000000000000e+00 
3.139599707071e+01 1.000000000000e+00 
3.150487004474e+01 1.000000000000e+00 
3.150487004474e+01 1.000000000000e+00 
3.161265428979e+01 1.000000000000e+00 
3.161265428979e+01 1.000000000000e+00 
3.171936069098e+01 1.000000000000e+00 
3.171936069098e+01 1.000000000000e+00 
3.182500002845e+01 1.000000000000e+00 
3.182500002845e+01 1.000000000000e+00 
3.192958297412e+01 1.000000000000e+00 
3.192958297412e+01 1.000000000000e+00 
3.203312008878e+01 1.000000000000e+00 
3.203312008878e+01 1.000000000000e+00 
3.213562183203e+01 1.000000000000e+00 
3.213562183203e+01 1.000000000000e+00 
3.223709855906e+01 1.000000000000e+00 
3.223709855906e+01 1.000000000000e+00 
3.233756051763e+01 1.000000000000e+00 
3.233756051763e+01 1.000000000000e+00 
3.243701785798e+01 1.000000000000e+00 
3.243701785798e+01 1.000000000000e+00 
3.253548062687e+01 1.000000000000e+00 
3.253548062687e+01 1.000000000000e+00 
3.263295876722e+01 1.000000000000e+00 
3.263295876722e+01 1.000000000000e+00 
3.272946212520e+01 1.000000000000e+00 
3.272946212520e+01 1.000000000000e+00 
3.282500044968e+01 1.000000000000e+00 
3.282500044968e+01 1.000000000000e+00 
3.291958339150e+01 1.000000000000e+00 
3.291958339150e+01 1.000000000000e+00 
3.301322050286e+01 1.000000000000e+00 
3.301322050286e+01 1.000000000000e+00 
3.310592124187e+01 1.000000000000e+00 
3.310592124187e+01 1.000000000000e+00 
3.319769497445e+01 1.000000000000e+00 
3.319769497445e+01 1.000000000000e+00 
3.328855097092e+01 1.000000000000e+00 
3.328855097092e+01 1.000000000000e+00 
3.337849840796e+01 1.000000000000e+00 
3.337849840796e+01 1.000000000000e+00 
3.346754637042e+01 1.000000000000e+00 
3.346754637042e+01 1.000000000000e+00 
3.355570385318e+01 1.000000000000e+00 
3.355570385318e+01 1.000000000000e+00 
3.364297976034e+01 1.000000000000e+00 
3.364297976034e+01 1.000000000000e+00 
3.372938290701e+01 1.000000000000e+00 
3.372938290701e+01 1.000000000000e+00 
3.381492202372e+01 1.000000000000e+00 
3.381492202372e+01 1.000000000000e+00 
3.389960575025e+01 1.000000000000e+00 
3.389960575025e+01 1.000000000000e+00 
3.398344263750e+01 1.000000000000e+00 
3.398344263750e+01 1.000000000000e+00 
3.406644115443e+01 1.000000000000e+00 
3.406644115443e+01 1.000000000000e+00 
3.414860968707e+01 1.000000000000e+00 
3.414860968707e+01 1.000000000000e+00 
3.422995653501e+01 1.000000000000e+00 
3.422995653501e+01 1.000000000000e+00 
3.431048991572e+01 1.000000000000e+00 
3.431048991572e+01 1.000000000000e+00 
3.439021796357e+01 1.000000000000e+00 
3.439021796357e+01 1.000000000000e+00 
3.446914872888e+01 1.000000000000e+00 
3.446914872888e+01 1.000000000000e+00 
3.454729018479e+01 1.000000000000e+00 
3.454729018479e+01 1.000000000000e+00 
3.462465022621e+01 1.000000000000e+00 
3.462465022621e+01 1.000000000000e+00 
3.470123666880e+01 1.000000000000e+00 
3.470123666880e+01 1.000000000000e+00 
3.477705724791e+01 1.000000000000e+00 
3.477705724791e+01 1.000000000000e+00 
3.485211962024e+01 1.000000000000e+00 
3.485211962024e+01 1.000000000000e+00 
3.492643136789e+01 1.000000000000e+00 
3.492643136789e+01 1.000000000000e+00 
3.500000000000e+01 1.000000000000e+00 
3.500000000000e+01 1.000000000000e+00 
 TITLE = "Profiles along polylines"
 VARIABLES = "DIST" "SATURATION1" 
 ZONE T="TIME=1.797693134862e+308"
0.000000000000e+00 1.000000000000e+00 
0.000000000000e+00 1.000000000000e+00 
4.228329442654e-01 1.000000000000e+00 
4.228329442654e-01 1.000000000000e+00 
8.414375614044e-01 1.000000000000e+00 
8.414375614044e-01 1.000000000000e+00 
1.255856131274e+00 1.000000000000e+00 
1.255856131274e+00 1.000000000000e+00 
1.666130515293e+00 1.000000000000e+00 
1.666130515293e+00 1.000000000000e+00 
2.072302156946e+00 1.000000000000e+00 
2.072302156946e+00 1.000000000000e+00 
2.474412082368e+00 1.000000000000e+00 
2.474412082368e+00 1.000000000000e+00 
2.872500908616e+00 1.000000000000e+00 
2.872500908616e+00 1.000000000000e+00 
3.266608846629e+00 1.000000000000e+00 
3.266608846629e+00 1.000000000000e+00 
3.656775704110e+00 1.000000000000e+00 
3.656775704110e+00 1.000000000000e+00 
4.043040890969e+00 1.000000000000e+00 
4.043040890969e+00 1.000000000000e+00 
4.425443427261e+00 1.000000000000e+00 
4.425443427261e+00 1.000000000000e+00 
4.804021937899e+00 1.000000000000e+00 
4.804021937899e+00 1.000000000000e+00 
5.178814663244e+00 1.000000000000e+00 
5.178814663244e+00 1.000000000000e+00 
5.549859461389e+00 1.000000000000e+00 
5.549859461389e+00 1.000000000000e+00 
5.917193810761e+00 1.000000000000e+00 
5.917193810761e+00 1.000000000000e+00 
6.280854817522e+00 1.000000000000e+00 
6.280854817522e+00 1.000000000000e+00 
6.640879212698e+00 1.000000000000e+00 
6.640879212698e+00 1.000000000000e+00 
6.997303364810e+00 1.000000000000e+00 
6.997303364810e+00 1.000000000000e+00 
7.350163276670e+00 1.000000000000e+00 
7.350163276670e+00 1.000000000000e+00 
7.699494590141e+00 1.000000000000e+00 
7.699494590141e+00 1.000000000000e+00 
8.045332590632e+00 1.000000000000e+00 
8.045332590632e+00 1.000000000000e+00 
8.387712209067e+00 1.000000000000e+00 
8.387712209067e+00 1.000000000000e+00 
8.726668031512e+00 1.000000000000e+00 
8.726668031512e+00 1.000000000000e+00 
9.062234295644e+00 1.000000000000e+00 
9.062234295644e+00 1.000000000000e+00 
9.394444897751e+00 1.000000000000e+00 
9.394444897751e+00 1.000000000000e+00 
9.723333394234e+00 1.000000000000e+00 
9.723333394234e+00 1.000000000000e+00 
1.004893300589e+01 1.000000000000e+00 
1.004893300589e+01 1.000000000000e+00 
1.037127662187e+01 1.000000000000e+00 
1.037127662187e+01 1.000000000000e+00 
1.069039680122e+01 1.000000000000e+00 
1.069039680122e+01 1.000000000000e+00 
1.100632577934e+01 1.000000000000e+00 
1.100632577934e+01 1.000000000000e+00 
1.131909546669e+01 1.000000000000e+00 
1.131909546669e+01 1.000000000000e+00 
1.162873745788e+01 1.000000000000e+00 
1.162873745788e+01 1.000000000000e+00 
1.193528303009e+01 1.000000000000e+00 
1.193528303009e+01 1.000000000000e+00 
1.223876314429e+01 1.000000000000e+00 
1.223876314429e+01 1.000000000000e+00 
1.253920845666e+01 1.000000000000e+00 
1.253920845666e+01 1.000000000000e+00 
1.283664931687e+01 1.000000000000e+00 
1.283664931687e+01 1.000000000000e+00 
1.313111576906e+01 1.000000000000e+00 
1.313111576906e+01 1.000000000000e+00 
1.342263755783e+01 1.000000000000e+00 
1.342263755783e+01 1.000000000000e+00 
1.371124412909e+01 1.000000000000e+00 
1.371124412909e+01 1.000000000000e+00 
1.399696463333e+01 1.000000000000e+00 
1.399696463333e+01 1.000000000000e+00 
1.427982793156e+01 1.000000000000e+00 
1.427982793156e+01 1.000000000000e+00 
1.455986259584e+01 1.000000000000e+00 
1.455986259584e+01 1.000000000000e+00 
1.483709691247e+01 1.000000000000e+00 
1.483709691247e+01 1.000000000000e+00 
1.511155888769e+01 1.000000000000e+00 
1.511155888769e+01 1.000000000000e+00 
1.538327624542e+01 1.000000000000e+00 
1.538327624542e+01 1.000000000000e+00 
1.565227643033e+01 1.000000000000e+00 
1.565227643033e+01 1.000000000000e+00 
1.591858661336e+01 1.000000000000e+00 
1.591858661336e+01 1.000000000000e+00 
1.618223369197e+01 1.000000000000e+00 
1.618223369197e+01 1.000000000000e+00 
1.644324429822e+01 1.000000000000e+00 
1.644324429822e+01 1.000000000000e+00 
1.670164479881e+01 1.000000000000e+00 
1.670164479881e+01 1.000000000000e+00 
1.695746129524e+01 9.999995600582e-01 
1.695746129524e+01 1.000000000000e+00 
1.721071962643e+01 1.000000000000e+00 
1.721071962643e+01 1.000000000000e+00 
1.746144537402e+01 9.556466129911e-01 
1.746144537402e+01 9.619637079335e-01 
1.770966386479e+01 9.017268357324e-01 
1.770966386479e+01 9.077236304401e-01 
1.795540017062e+01 8.534654762526e-01 
1.795540017062e+01 8.587304528086e-01 
1.819867911356e+01 8.119974194027e-01 
1.819867911356e+01 8.165368208664e-01 
1.843952526816e+01 7.765709089829e-01 
1.843952526816e+01 7.804906813191e-01 
1.867796296125e+01 7.461443606361e-01 
1.867796296125e+01 7.495553502775e-01 
1.891401627686e+01 7.197840720804e-01 
1.891401627686e+01 7.227803088451e-01 
1.914770905841e+01 6.967326335263e-01 
1.914770905841e+01 6.993893398295e-01 
1.937906491098e+01 6.763932324030e-01 
1.937906491098e+01 6.787696224802e-01 
1.960810720601e+01 6.582980057519e-01 
1.960810720601e+01 6.604406789781e-01 
1.983485907816e+01 6.420785818206e-01 
1.983485907816e+01 6.440244396167e-01 
2.005934343268e+01 6.274425248082e-01 
2.005934343268e+01 6.292210503936e-01 
2.028158294467e+01 6.141554210138e-01 
2.028158294467e+01 6.157904033306e-01 
2.050160006120e+01 6.020274746113e-01 
2.050160006120e+01 6.035382993687e-01 
2.071941700570e+01 5.909034995767e-01 
2.071941700570e+01 5.923061167284e-01 
2.093505577995e+01 5.806554150746e-01 
2.093505577995e+01 5.819630678552e-01 
2.114853816581e+01 5.711765760586e-01 
2.114853816581e+01 5.724003546974e-01 
2.135988572703e+01 5.623774523277e-01 
2.135988572703e+01 5.635267183807e-01 
2.156911981364e+01 5.541823042942e-01 
2.156911981364e+01 5.552650188602e-01 
2.177626156092e+01 5.465266016739e-01 
2.177626156092e+01 5.475495816295e-01 
2.198133189116e+01 5.393550002893e-01 
2.198133189116e+01 5.403241201418e-01 
2.218435151784e+01 5.326197422014e-01 
2.218435151784e+01 5.335400944864e-01 
2.238534094724e+01 5.262793800058e-01 
2.238534094724e+01 5.271554038020e-01 
2.258432048250e+01 5.202977512588e-01 
2.258432048250e+01 5.211333359697e-01 
2.278131022253e+01 5.146431479204e-01 
2.278131022253e+01 5.154417177079e-01 
2.297633006606e+01 5.092876386096e-01 
2.297633006606e+01 5.100522215692e-01 
2.316939971304e+01 5.042065119941e-01 
2.316939971304e+01 5.049397972071e-01 
2.336053866346e+01 4.993778167325e-01 
2.336053866346e+01 5.000822016143e-01 
2.354976622364e+01 4.947819786845e-01 
2.354976622364e+01 4.954596085113e-01 
2.373710150789e+01 4.904014808579e-01 
2.373710150789e+01 4.910542819483e-01 
2.392256343949e+01 4.862205942825e-01 
2.392256343949e+01 4.868503020008e-01 
2.410617075196e+01 4.822251505351e-01 
2.410617075196e+01 4.828333330407e-01 
2.428794199023e+01 4.784023485453e-01 
2.428794199023e+01 4.789904270308e-01 
2.446789551442e+01 4.747405897122e-01 
2.446789551442e+01 4.753098557257e-01 
2.464604950347e+01 4.712293366204e-01 
2.464604950347e+01 4.717809669546e-01 
2.482242195364e+01 4.678589915754e-01 
2.482242195364e+01 4.683940611183e-01 
2.499703067945e+01 4.646207916315e-01 
2.499703067945e+01 4.651402844988e-01 
2.516989331736e+01 4.615067175325e-01 
2.516989331736e+01 4.620115367474e-01 
2.534102732932e+01 4.585094144843e-01 
2.534102732932e+01 4.590003904223e-01 
2.551045000099e+01 4.556221230749e-01 
2.551045000099e+01 4.561000208573e-01 
2.567817844532e+01 4.528386186818e-01 
2.567817844532e+01 4.533041446673e-01 
2.584422960594e+01 4.506069657435e-01 
2.584422960594e+01 4.501531582407e-01 
2.600862025536e+01 4.480031277629e-01 
2.600862025536e+01 4.475604334227e-01 
2.617136699839e+01 4.450555291785e-01 
2.617136699839e+01 4.454876721563e-01 
2.633248627282e+01 4.426338870489e-01 
2.633248627282e+01 4.430560009173e-01 
2.649199435544e+01 4.402912724962e-01 
2.649199435544e+01 4.407038434980e-01 
2.664990735733e+01 4.380237459648e-01 
2.664990735733e+01 4.384272274897e-01 
2.680624122730e+01 4.358276369337e-01 
2.680624122730e+01 4.362224523426e-01 
2.696101176021e+01 4.336995206366e-01 
2.696101176021e+01 4.340860657925e-01 
2.711423458968e+01 4.316361973966e-01 
2.711423458968e+01 4.320148429402e-01 
2.726592519133e+01 4.296346739185e-01 
2.726592519133e+01 4.300057673163e-01 
2.741609888585e+01 4.280560138386e-01 
2.741609888585e+01 4.276921464470e-01 
2.756477084217e+01 4.261629334406e-01 
2.756477084217e+01 4.258059855723e-01 
2.771195607779e+01 4.239737225314e-01 
2.771195607779e+01 4.243240392148e-01 
2.785766946191e+01 4.225369938349e-01 
2.785766946191e+01 4.221930367707e-01 
2.800192571308e+01 4.207995982133e-01 
2.800192571308e+01 4.204617447287e-01 
2.814473939969e+01 4.187777896101e-01 
2.814473939969e+01 4.191097811634e-01 
2.828612495072e+01 4.171392319611e-01 
2.828612495072e+01 4.174655898741e-01 
2.842609664807e+01 4.155442412865e-01 
2.842609664807e+01 4.158651814380e-01 
2.856466862699e+01 4.139910883066e-01 
2.856466862699e+01 4.143068150269e-01 
2.870185488672e+01 4.124781377646e-01 
2.870185488672e+01 4.127888446262e-01 
2.883766928542e+01 4.110038420112e-01 
2.883766928542e+01 4.113097125545e-01 
2.897212553780e+01 4.095667350926e-01 
2.897212553780e+01 4.098679434923e-01 
2.910523722576e+01 4.081654271866e-01 
2.910523722576e+01 4.084621388643e-01 
2.923701779842e+01 4.067985995969e-01 
2.923701779842e+01 4.070909717847e-01 
2.936748056702e+01 4.054650001973e-01 
2.936748056702e+01 4.057531824583e-01 
2.949663870762e+01 4.041634391541e-01 
2.949663870762e+01 4.044475738623e-01 
2.962450526641e+01 4.028927849529e-01 
2.962450526641e+01 4.031730077369e-01 
2.975109315967e+01 4.016519607813e-01 
2.975109315967e+01 4.019284009344e-01 
2.987641517381e+01 4.004399411810e-01 
2.987641517381e+01 4.007127220415e-01 
3.000048396790e+01 3.992557489256e-01 
3.000048396790e+01 3.995249882290e-01 
3.012331207364e+01 3.980984521494e-01 
3.012331207364e+01 3.983642623555e-01 
3.024491189790e+01 3.969671616606e-01 
3.024491189790e+01 3.972296502575e-01 
3.036529572520e+01 3.958610284455e-01 
3.036529572520e+01 3.961202982322e-01 
3.048447571493e+01 3.947792413960e-01 
3.048447571493e+01 3.950353907455e-01 
3.060246390389e+01 3.937210251476e-01 
3.060246390389e+01 3.939741482518e-01 
3.071927221125e+01 3.926856380428e-01 
3.071927221125e+01 3.929358251416e-01 
3.083491243578e+01 3.916723703018e-01 
3.083491243578e+01 3.919197078963e-01 
3.094939625820e+01 3.906805422696e-01 
3.094939625820e+01 3.909251133213e-01 
3.106273524093e+01 3.897095028015e-01 
3.106273524093e+01 3.899513869191e-01 
3.117494083309e+01 3.887586277099e-01 
3.117494083309e+01 3.889979013240e-01 
3.128602437007e+01 3.878273183565e-01 
3.128602437007e+01 3.880640548822e-01 
3.139599707071e+01 3.869150003532e-01 
3.139599707071e+01 3.871492703444e-01 
3.150487004474e+01 3.860211222621e-01 
3.150487004474e+01 3.862529935546e-01 
3.161265428979e+01 3.851451544601e-01 
3.161265428979e+01 3.853746923065e-01 
3.171936069098e+01 3.842865880520e-01 
3.171936069098e+01 3.845138552489e-01 
3.182500002845e+01 3.834449337890e-01 
3.182500002845e+01 3.836699907959e-01 
3.192958297412e+01 3.826197211340e-01 
3.192958297412e+01 3.828426261856e-01 
3.203312008878e+01 3.818104973825e-01 
3.203312008878e+01 3.820313065941e-01 
3.213562183203e+01 3.810168267343e-01 
3.213562183203e+01 3.812355942015e-01 
3.223709855906e+01 3.802382895211e-01 
3.223709855906e+01 3.804550674136e-01 
3.233756051763e+01 3.794744814765e-01 
3.233756051763e+01 3.796893201261e-01 
3.243701785798e+01 3.787250129505e-01 
3.243701785798e+01 3.789379609353e-01 
3.253548062687e+01 3.779895082864e-01 
3.253548062687e+01 3.782006125092e-01 
3.263295876722e+01 3.774769109550e-01 
3.263295876722e+01 3.772676051918e-01 
3.272946212520e+01 3.767665051649e-01 
3.272946212520e+01 3.765589540892e-01 
3.282500044968e+01 3.758632175576e-01 
3.282500044968e+01 3.760690562545e-01 
3.291958339150e+01 3.751800698057e-01 
3.291958339150e+01 3.753842370326e-01 
3.301322050286e+01 3.745091961731e-01 
3.301322050286e+01 3.747117314981e-01 
3.310592124187e+01 3.738502926203e-01 
3.310592124187e+01 3.740512343279e-01 
3.319769497445e+01 3.732030652652e-01 
3.319769497445e+01 3.734024504100e-01 
3.328855097092e+01 3.725672299799e-01 
3.328855097092e+01 3.727650944376e-01 
3.337849840796e+01 3.719425119718e-01 
3.337849840796e+01 3.721388904877e-01 
3.346754637042e+01 3.713286453866e-01 
3.346754637042e+01 3.715235716215e-01 
3.355570385318e+01 3.707253729318e-01 
3.355570385318e+01 3.709188795057e-01 
3.364297976034e+01 3.701324455360e-01 
3.364297976034e+01 3.703245640700e-01 
3.372938290701e+01 3.695496220090e-01 
3.372938290701e+01 3.697403831643e-01 
3.381492202372e+01 3.689766686998e-01 
3.381492202372e+01 3.691661022156e-01 
3.389960575025e+01 3.684133592420e-01 
3.389960575025e+01 3.686014939713e-01 
3.398344263750e+01 3.678594742592e-01 
3.398344263750e+01 3.680463382030e-01 
3.406644115443e+01 3.673148010503e-01 
3.406644115443e+01 3.675004213899e-01 
3.414860968707e+01 3.667791333418e-01 
3.414860968707e+01 3.669635364700e-01 
3.422995653501e+01 3.662522710679e-01 
3.422995653501e+01 3.664354826182e-01 
3.431048991572e+01 3.657340201103e-01 
3.431048991572e+01 3.659160649855e-01 
3.439021796357e+01 3.652241920850e-01 
3.439021796357e+01 3.654050944839e-01 
3.446914872888e+01 3.647226041367e-01 
3.446914872888e+01 3.649023875799e-01 
3.454729018479e+01 3.642290786957e-01 
3.454729018479e+01 3.644077660501e-01 
3.462465022621e+01 3.637434432931e-01 
3.462465022621e+01 3.639210567953e-01 
3.470123666880e+01 3.632655303855e-01 
3.470123666880e+01 3.634420916642e-01 
3.477705724791e+01 3.627951771865e-01 
3.477705724791e+01 3.629707072843e-01 
3.485211962024e+01 3.623322254908e-01 
3.485211962024e+01 3.625067448843e-01 
3.492643136789e+01 3.618765214890e-01 
3.492643136789e+01 3.620500501086e-01 
3.500000000000e+01 3.614279139655e-01 
3.500000000000e+01 3.616004712074e-01 
