VARIABLES = "X","Y","Z",VELOCITY1_X,VELOCITY1_Y,VELOCITY1_Z
ZONE T="0.000000000000e+00s", 
0.000000000000e+00 0.000000000000e+00 5.000000000000e-01 0.000000000000e+00 0.000000000000e+00 0.000000000000e+00
0.000000000000e+00 0.000000000000e+00 1.500000000000e+00 0.000000000000e+00 0.000000000000e+00 0.000000000000e+00
0.000000000000e+00 0.000000000000e+00 2.500000000000e+00 0.000000000000e+00 0.000000000000e+00 0.000000000000e+00
0.000000000000e+00 0.000000000000e+00 3.500000000000e+00 0.000000000000e+00 0.000000000000e+00 0.000000000000e+00
0.000000000000e+00 0.000000000000e+00 4.500000000000e+00 0.000000000000e+00 0.000000000000e+00 0.000000000000e+00
0.000000000000e+00 0.000000000000e+00 5.500000000000e+00 0.000000000000e+00 0.000000000000e+00 0.000000000000e+00
0.000000000000e+00 0.000000000000e+00 6.500000000000e+00 0.000000000000e+00 0.000000000000e+00 0.000000000000e+00
0.000000000000e+00 0.000000000000e+00 7.500000000000e+00 0.000000000000e+00 0.000000000000e+00 0.000000000000e+00
0.000000000000e+00 0.000000000000e+00 8.500000000000e+00 0.000000000000e+00 0.000000000000e+00 0.000000000000e+00
0.000000000000e+00 0.000000000000e+00 9.500000000000e+00 0.000000000000e+00 0.000000000000e+00 0.000000000000e+00
0.000000000000e+00 0.000000000000e+00 1.050000000000e+01 0.000000000000e+00 0.000000000000e+00 0.000000000000e+00
0.000000000000e+00 0.000000000000e+00 1.150000000000e+01 0.000000000000e+00 0.000000000000e+00 0.000000000000e+00
0.000000000000e+00 0.000000000000e+00 1.250000000000e+01 0.000000000000e+00 0.000000000000e+00 0.000000000000e+00
0.000000000000e+00 0.000000000000e+00 1.350000000000e+01 0.000000000000e+00 0.000000000000e+00 0.000000000000e+00
0.000000000000e+00 0.000000000000e+00 1.450000000000e+01 0.000000000000e+00 0.000000000000e+00 0.000000000000e+00
0.000000000000e+00 0.000000000000e+00 1.550000000000e+01 0.000000000000e+00 0.000000000000e+00 0.000000000000e+00
0.000000000000e+00 0.000000000000e+00 1.650000000000e+01 0.000000000000e+00 0.000000000000e+00 0.000000000000e+00
0.000000000000e+00 0.000000000000e+00 1.750000000000e+01 0.000000000000e+00 0.000000000000e+00 0.000000000000e+00
0.000000000000e+00 0.000000000000e+00 1.850000000000e+01 0.000000000000e+00 0.000000000000e+00 0.000000000000e+00
0.000000000000e+00 0.000000000000e+00 1.950000000000e+01 0.000000000000e+00 0.000000000000e+00 0.000000000000e+00
0.000000000000e+00 0.000000000000e+00 2.050000000000e+01 0.000000000000e+00 0.000000000000e+00 0.000000000000e+00
0.000000000000e+00 0.000000000000e+00 2.150000000000e+01 0.000000000000e+00 0.000000000000e+00 0.000000000000e+00
0.000000000000e+00 0.000000000000e+00 2.250000000000e+01 0.000000000000e+00 0.000000000000e+00 0.000000000000e+00
0.000000000000e+00 0.000000000000e+00 2.350000000000e+01 0.000000000000e+00 0.000000000000e+00 0.000000000000e+00
0.000000000000e+00 0.000000000000e+00 2.450000000000e+01 0.000000000000e+00 0.000000000000e+00 0.000000000000e+00
0.000000000000e+00 0.000000000000e+00 2.550000000000e+01 0.000000000000e+00 0.000000000000e+00 0.000000000000e+00
0.000000000000e+00 0.000000000000e+00 2.650000000000e+01 0.000000000000e+00 0.000000000000e+00 0.000000000000e+00
0.000000000000e+00 0.000000000000e+00 2.750000000000e+01 0.000000000000e+00 0.000000000000e+00 0.000000000000e+00
0.000000000000e+00 0.000000000000e+00 2.850000000000e+01 0.000000000000e+00 0.000000000000e+00 0.000000000000e+00
0.000000000000e+00 0.000000000000e+00 2.950000000000e+01 0.000000000000e+00 0.000000000000e+00 0.000000000000e+00
VARIABLES = "X","Y","Z",VELOCITY1_X,VELOCITY1_Y,VELOCITY1_Z
ZONE T="1.797693134862e+308s", 
0.000000000000e+00 0.000000000000e+00 5.000000000000e-01 6.148455297818e-12 -6.148450085906e-12 0.000000000000e+00
0.000000000000e+00 0.000000000000e+00 1.500000000000e+00 2.501966741712e-11 -3.731672349922e-11 0.000000000000e+00
0.000000000000e+00 0.000000000000e+00 2.500000000000e+00 2.198578550842e-12 -6.453659312563e-11 0.000000000000e+00
0.000000000000e+00 0.000000000000e+00 3.500000000000e+00 2.548291568678e-11 -9.221821349016e-11 0.000000000000e+00
0.000000000000e+00 0.000000000000e+00 4.500000000000e+00 3.194131858617e-11 -1.496438237156e-10 0.000000000000e+00
0.000000000000e+00 0.000000000000e+00 5.500000000000e+00 1.757277989247e-12 -1.833445460672e-10 0.000000000000e+00
0.000000000000e+00 0.000000000000e+00 6.500000000000e+00 1.775087046738e-10 -3.626091893428e-10 0.000000000000e+00
0.000000000000e+00 0.000000000000e+00 7.500000000000e+00 1.617833169419e-12 -5.417457493982e-10 0.000000000000e+00
0.000000000000e+00 0.000000000000e+00 8.500000000000e+00 8.193548976957e-12 -5.515574623460e-10 0.000000000000e+00
0.000000000000e+00 0.000000000000e+00 9.500000000000e+00 3.151535980743e-10 -8.749082926160e-10 0.000000000000e+00
0.000000000000e+00 0.000000000000e+00 1.050000000000e+01 2.691924748793e-10 -1.459229590190e-09 0.000000000000e+00
0.000000000000e+00 0.000000000000e+00 1.150000000000e+01 3.793989989410e-11 -1.766326990788e-09 0.000000000000e+00
0.000000000000e+00 0.000000000000e+00 1.250000000000e+01 9.412893986709e-12 -1.813675856516e-09 0.000000000000e+00
0.000000000000e+00 0.000000000000e+00 1.350000000000e+01 4.493619517961e-13 -1.823538161809e-09 0.000000000000e+00
0.000000000000e+00 0.000000000000e+00 1.450000000000e+01 3.373356818202e-11 -1.857721094088e-09 0.000000000000e+00
0.000000000000e+00 0.000000000000e+00 1.550000000000e+01 4.925643190870e-11 -1.940712627247e-09 0.000000000000e+00
0.000000000000e+00 0.000000000000e+00 1.650000000000e+01 1.434887238075e-11 -2.004320397980e-09 0.000000000000e+00
0.000000000000e+00 0.000000000000e+00 1.750000000000e+01 7.500891049336e-13 -2.019420140337e-09 0.000000000000e+00
0.000000000000e+00 0.000000000000e+00 1.850000000000e+01 1.174448772555e-11 -2.031914814540e-09 0.000000000000e+00
0.000000000000e+00 0.000000000000e+00 1.950000000000e+01 5.557290474072e-10 -2.599378838585e-09 0.000000000000e+00
0.000000000000e+00 0.000000000000e+00 2.050000000000e+01 1.017885105110e-13 -3.155261004369e-09 0.000000000000e+00
0.000000000000e+00 0.000000000000e+00 2.150000000000e+01 8.233641137498e-12 -3.163596433585e-09 0.000000000000e+00
0.000000000000e+00 0.000000000000e+00 2.250000000000e+01 8.053116799713e-11 -3.252361283899e-09 0.000000000000e+00
0.000000000000e+00 0.000000000000e+00 2.350000000000e+01 8.523429547259e-13 -3.333760753704e-09 0.000000000000e+00
0.000000000000e+00 0.000000000000e+00 2.450000000000e+01 1.229193443140e-11 -3.346905050318e-09 0.000000000000e+00
0.000000000000e+00 0.000000000000e+00 2.550000000000e+01 1.810106851172e-12 -3.361009625990e-09 0.000000000000e+00
0.000000000000e+00 0.000000000000e+00 2.650000000000e+01 1.318538434115e-11 -3.376005923591e-09 0.000000000000e+00
0.000000000000e+00 0.000000000000e+00 2.750000000000e+01 7.497830085311e-10 -4.138950207629e-09 0.000000000000e+00
0.000000000000e+00 0.000000000000e+00 2.850000000000e+01 6.194349679556e-12 -4.895090147875e-09 0.000000000000e+00
0.000000000000e+00 0.000000000000e+00 2.950000000000e+01 4.341225714765e-10 -5.335394677210e-09 0.000000000000e+00
