VARIABLES = "X","Y","Z",VELOCITY1_X,VELOCITY1_Y,VELOCITY1_Z
ZONE T="0.000000000000e+00s", 
4.900000000000e+01 0.000000000000e+00 5.000000000000e-01 0.000000000000e+00 0.000000000000e+00 0.000000000000e+00
5.000000000000e+01 0.000000000000e+00 5.000000000000e-01 0.000000000000e+00 0.000000000000e+00 0.000000000000e+00
4.900000000000e+01 0.000000000000e+00 1.500000000000e+00 0.000000000000e+00 0.000000000000e+00 0.000000000000e+00
5.000000000000e+01 0.000000000000e+00 1.500000000000e+00 0.000000000000e+00 0.000000000000e+00 0.000000000000e+00
4.900000000000e+01 0.000000000000e+00 2.500000000000e+00 0.000000000000e+00 0.000000000000e+00 0.000000000000e+00
5.000000000000e+01 0.000000000000e+00 2.500000000000e+00 0.000000000000e+00 0.000000000000e+00 0.000000000000e+00
4.900000000000e+01 0.000000000000e+00 3.500000000000e+00 0.000000000000e+00 0.000000000000e+00 0.000000000000e+00
5.000000000000e+01 0.000000000000e+00 3.500000000000e+00 0.000000000000e+00 0.000000000000e+00 0.000000000000e+00
4.900000000000e+01 0.000000000000e+00 4.500000000000e+00 0.000000000000e+00 0.000000000000e+00 0.000000000000e+00
5.000000000000e+01 0.000000000000e+00 4.500000000000e+00 0.000000000000e+00 0.000000000000e+00 0.000000000000e+00
4.900000000000e+01 0.000000000000e+00 5.500000000000e+00 0.000000000000e+00 0.000000000000e+00 0.000000000000e+00
5.000000000000e+01 0.000000000000e+00 5.500000000000e+00 0.000000000000e+00 0.000000000000e+00 0.000000000000e+00
4.900000000000e+01 0.000000000000e+00 6.500000000000e+00 0.000000000000e+00 0.000000000000e+00 0.000000000000e+00
5.000000000000e+01 0.000000000000e+00 6.500000000000e+00 0.000000000000e+00 0.000000000000e+00 0.000000000000e+00
4.900000000000e+01 0.000000000000e+00 7.500000000000e+00 0.000000000000e+00 0.000000000000e+00 0.000000000000e+00
5.000000000000e+01 0.000000000000e+00 7.500000000000e+00 0.000000000000e+00 0.000000000000e+00 0.000000000000e+00
4.900000000000e+01 0.000000000000e+00 8.500000000000e+00 0.000000000000e+00 0.000000000000e+00 0.000000000000e+00
5.000000000000e+01 0.000000000000e+00 8.500000000000e+00 0.000000000000e+00 0.000000000000e+00 0.000000000000e+00
4.900000000000e+01 0.000000000000e+00 9.500000000000e+00 0.000000000000e+00 0.000000000000e+00 0.000000000000e+00
5.000000000000e+01 0.000000000000e+00 9.500000000000e+00 0.000000000000e+00 0.000000000000e+00 0.000000000000e+00
4.900000000000e+01 0.000000000000e+00 1.050000000000e+01 0.000000000000e+00 0.000000000000e+00 0.000000000000e+00
5.000000000000e+01 0.000000000000e+00 1.050000000000e+01 0.000000000000e+00 0.000000000000e+00 0.000000000000e+00
4.900000000000e+01 0.000000000000e+00 1.150000000000e+01 0.000000000000e+00 0.000000000000e+00 0.000000000000e+00
5.000000000000e+01 0.000000000000e+00 1.150000000000e+01 0.000000000000e+00 0.000000000000e+00 0.000000000000e+00
4.900000000000e+01 0.000000000000e+00 1.250000000000e+01 0.000000000000e+00 0.000000000000e+00 0.000000000000e+00
5.000000000000e+01 0.000000000000e+00 1.250000000000e+01 0.000000000000e+00 0.000000000000e+00 0.000000000000e+00
4.900000000000e+01 0.000000000000e+00 1.350000000000e+01 0.000000000000e+00 0.000000000000e+00 0.000000000000e+00
5.000000000000e+01 0.000000000000e+00 1.350000000000e+01 0.000000000000e+00 0.000000000000e+00 0.000000000000e+00
4.900000000000e+01 0.000000000000e+00 1.450000000000e+01 0.000000000000e+00 0.000000000000e+00 0.000000000000e+00
5.000000000000e+01 0.000000000000e+00 1.450000000000e+01 0.000000000000e+00 0.000000000000e+00 0.000000000000e+00
4.900000000000e+01 0.000000000000e+00 1.550000000000e+01 0.000000000000e+00 0.000000000000e+00 0.000000000000e+00
5.000000000000e+01 0.000000000000e+00 1.550000000000e+01 0.000000000000e+00 0.000000000000e+00 0.000000000000e+00
4.900000000000e+01 0.000000000000e+00 1.650000000000e+01 0.000000000000e+00 0.000000000000e+00 0.000000000000e+00
5.000000000000e+01 0.000000000000e+00 1.650000000000e+01 0.000000000000e+00 0.000000000000e+00 0.000000000000e+00
4.900000000000e+01 0.000000000000e+00 1.750000000000e+01 0.000000000000e+00 0.000000000000e+00 0.000000000000e+00
5.000000000000e+01 0.000000000000e+00 1.750000000000e+01 0.000000000000e+00 0.000000000000e+00 0.000000000000e+00
4.900000000000e+01 0.000000000000e+00 1.850000000000e+01 0.000000000000e+00 0.000000000000e+00 0.000000000000e+00
5.000000000000e+01 0.000000000000e+00 1.850000000000e+01 0.000000000000e+00 0.000000000000e+00 0.000000000000e+00
4.900000000000e+01 0.000000000000e+00 1.950000000000e+01 0.000000000000e+00 0.000000000000e+00 0.000000000000e+00
5.000000000000e+01 0.000000000000e+00 1.950000000000e+01 0.000000000000e+00 0.000000000000e+00 0.000000000000e+00
4.900000000000e+01 0.000000000000e+00 2.050000000000e+01 0.000000000000e+00 0.000000000000e+00 0.000000000000e+00
5.000000000000e+01 0.000000000000e+00 2.050000000000e+01 0.000000000000e+00 0.000000000000e+00 0.000000000000e+00
4.900000000000e+01 0.000000000000e+00 2.150000000000e+01 0.000000000000e+00 0.000000000000e+00 0.000000000000e+00
5.000000000000e+01 0.000000000000e+00 2.150000000000e+01 0.000000000000e+00 0.000000000000e+00 0.000000000000e+00
4.900000000000e+01 0.000000000000e+00 2.250000000000e+01 0.000000000000e+00 0.000000000000e+00 0.000000000000e+00
5.000000000000e+01 0.000000000000e+00 2.250000000000e+01 0.000000000000e+00 0.000000000000e+00 0.000000000000e+00
4.900000000000e+01 0.000000000000e+00 2.350000000000e+01 0.000000000000e+00 0.000000000000e+00 0.000000000000e+00
5.000000000000e+01 0.000000000000e+00 2.350000000000e+01 0.000000000000e+00 0.000000000000e+00 0.000000000000e+00
4.900000000000e+01 0.000000000000e+00 2.450000000000e+01 0.000000000000e+00 0.000000000000e+00 0.000000000000e+00
5.000000000000e+01 0.000000000000e+00 2.450000000000e+01 0.000000000000e+00 0.000000000000e+00 0.000000000000e+00
4.900000000000e+01 0.000000000000e+00 2.550000000000e+01 0.000000000000e+00 0.000000000000e+00 0.000000000000e+00
5.000000000000e+01 0.000000000000e+00 2.550000000000e+01 0.000000000000e+00 0.000000000000e+00 0.000000000000e+00
4.900000000000e+01 0.000000000000e+00 2.650000000000e+01 0.000000000000e+00 0.000000000000e+00 0.000000000000e+00
5.000000000000e+01 0.000000000000e+00 2.650000000000e+01 0.000000000000e+00 0.000000000000e+00 0.000000000000e+00
4.900000000000e+01 0.000000000000e+00 2.750000000000e+01 0.000000000000e+00 0.000000000000e+00 0.000000000000e+00
5.000000000000e+01 0.000000000000e+00 2.750000000000e+01 0.000000000000e+00 0.000000000000e+00 0.000000000000e+00
4.900000000000e+01 0.000000000000e+00 2.850000000000e+01 0.000000000000e+00 0.000000000000e+00 0.000000000000e+00
5.000000000000e+01 0.000000000000e+00 2.850000000000e+01 0.000000000000e+00 0.000000000000e+00 0.000000000000e+00
4.900000000000e+01 0.000000000000e+00 2.950000000000e+01 0.000000000000e+00 0.000000000000e+00 0.000000000000e+00
5.000000000000e+01 0.000000000000e+00 2.950000000000e+01 0.000000000000e+00 0.000000000000e+00 0.000000000000e+00
VARIABLES = "X","Y","Z",VELOCITY1_X,VELOCITY1_Y,VELOCITY1_Z
ZONE T="1.797693134862e+308s", 
4.900000000000e+01 0.000000000000e+00 5.000000000000e-01 6.086893114019e-10 -6.148394044259e-12 0.000000000000e+00
5.000000000000e+01 0.000000000000e+00 5.000000000000e-01 6.209859978458e-10 -6.148397285032e-12 0.000000000000e+00
4.900000000000e+01 0.000000000000e+00 1.500000000000e+00 2.476924894968e-09 -3.731670629101e-11 0.000000000000e+00
5.000000000000e+01 0.000000000000e+00 1.500000000000e+00 2.526963474169e-09 -3.731669873227e-11 0.000000000000e+00
4.900000000000e+01 0.000000000000e+00 2.500000000000e+00 2.176609102007e-10 -6.453597424872e-11 0.000000000000e+00
5.000000000000e+01 0.000000000000e+00 2.500000000000e+00 2.220580695354e-10 -6.453595914107e-11 0.000000000000e+00
4.900000000000e+01 0.000000000000e+00 3.500000000000e+00 2.522784007864e-09 -9.221748620959e-11 0.000000000000e+00
5.000000000000e+01 0.000000000000e+00 3.500000000000e+00 2.573749118346e-09 -9.221743723281e-11 0.000000000000e+00
4.900000000000e+01 0.000000000000e+00 4.500000000000e+00 3.162183897469e-09 -1.496428938324e-10 0.000000000000e+00
5.000000000000e+01 0.000000000000e+00 4.500000000000e+00 3.226066089539e-09 -1.496427369698e-10 0.000000000000e+00
4.900000000000e+01 0.000000000000e+00 5.500000000000e+00 1.739715661730e-10 -1.833428034182e-10 0.000000000000e+00
5.000000000000e+01 0.000000000000e+00 5.500000000000e+00 1.774861206393e-10 -1.833427480349e-10 0.000000000000e+00
4.900000000000e+01 0.000000000000e+00 6.500000000000e+00 1.757316510751e-08 -3.626078201329e-10 0.000000000000e+00
5.000000000000e+01 0.000000000000e+00 6.500000000000e+00 1.792817718393e-08 -3.626074618564e-10 0.000000000000e+00
4.900000000000e+01 0.000000000000e+00 7.500000000000e+00 1.601658930634e-10 -5.417404069192e-10 0.000000000000e+00
5.000000000000e+01 0.000000000000e+00 7.500000000000e+00 1.634015544014e-10 -5.417401795568e-10 0.000000000000e+00
4.900000000000e+01 0.000000000000e+00 8.500000000000e+00 8.111302868521e-10 -5.515515383377e-10 0.000000000000e+00
5.000000000000e+01 0.000000000000e+00 8.500000000000e+00 8.275167172010e-10 -5.515513574833e-10 0.000000000000e+00
4.900000000000e+01 0.000000000000e+00 9.500000000000e+00 3.119789785592e-08 -8.748773529102e-10 0.000000000000e+00
5.000000000000e+01 0.000000000000e+00 9.500000000000e+00 3.182815767653e-08 -8.748769538581e-10 0.000000000000e+00
4.900000000000e+01 0.000000000000e+00 1.050000000000e+01 2.664752217094e-08 -1.459194330560e-09 0.000000000000e+00
5.000000000000e+01 0.000000000000e+00 1.050000000000e+01 2.718585452561e-08 -1.459194640264e-09 0.000000000000e+00
4.900000000000e+01 0.000000000000e+00 1.150000000000e+01 3.755638795120e-09 -1.766309915958e-09 0.000000000000e+00
5.000000000000e+01 0.000000000000e+00 1.150000000000e+01 3.831510162928e-09 -1.766309018104e-09 0.000000000000e+00
4.900000000000e+01 0.000000000000e+00 1.250000000000e+01 9.318019685336e-10 -1.813658989180e-09 0.000000000000e+00
5.000000000000e+01 0.000000000000e+00 1.250000000000e+01 9.506261192479e-10 -1.813658278536e-09 0.000000000000e+00
4.900000000000e+01 0.000000000000e+00 1.350000000000e+01 4.448528450676e-11 -1.823520635787e-09 0.000000000000e+00
5.000000000000e+01 0.000000000000e+00 1.350000000000e+01 4.538397148395e-11 -1.823519890520e-09 0.000000000000e+00
4.900000000000e+01 0.000000000000e+00 1.450000000000e+01 3.339532157385e-09 -1.857703059827e-09 0.000000000000e+00
5.000000000000e+01 0.000000000000e+00 1.450000000000e+01 3.406997217590e-09 -1.857702262115e-09 0.000000000000e+00
4.900000000000e+01 0.000000000000e+00 1.550000000000e+01 4.876274050198e-09 -1.940694127358e-09 0.000000000000e+00
5.000000000000e+01 0.000000000000e+00 1.550000000000e+01 4.974784310964e-09 -1.940693326663e-09 0.000000000000e+00
4.900000000000e+01 0.000000000000e+00 1.650000000000e+01 1.420515433316e-09 -2.004301584458e-09 0.000000000000e+00
5.000000000000e+01 0.000000000000e+00 1.650000000000e+01 1.449212603883e-09 -2.004300790074e-09 0.000000000000e+00
4.900000000000e+01 0.000000000000e+00 1.750000000000e+01 7.425812115807e-11 -2.019401040453e-09 0.000000000000e+00
5.000000000000e+01 0.000000000000e+00 1.750000000000e+01 7.575827886131e-11 -2.019400247742e-09 0.000000000000e+00
4.900000000000e+01 0.000000000000e+00 1.850000000000e+01 1.162688904839e-09 -2.031895703519e-09 0.000000000000e+00
5.000000000000e+01 0.000000000000e+00 1.850000000000e+01 1.186177472890e-09 -2.031894898117e-09 0.000000000000e+00
4.900000000000e+01 0.000000000000e+00 1.950000000000e+01 5.501640330503e-08 -2.599370894351e-09 0.000000000000e+00
5.000000000000e+01 0.000000000000e+00 1.950000000000e+01 5.612784368249e-08 -2.599370833627e-09 0.000000000000e+00
4.900000000000e+01 0.000000000000e+00 2.050000000000e+01 1.007719677305e-11 -3.155235356428e-09 0.000000000000e+00
5.000000000000e+01 0.000000000000e+00 2.050000000000e+01 1.028077674754e-11 -3.155234281210e-09 0.000000000000e+00
4.900000000000e+01 0.000000000000e+00 2.150000000000e+01 8.151073918585e-10 -3.163570959755e-09 0.000000000000e+00
5.000000000000e+01 0.000000000000e+00 2.150000000000e+01 8.315744227324e-10 -3.163569848608e-09 0.000000000000e+00
4.900000000000e+01 0.000000000000e+00 2.250000000000e+01 7.972458611093e-09 -3.252339496203e-09 0.000000000000e+00
5.000000000000e+01 0.000000000000e+00 2.250000000000e+01 8.133519896934e-09 -3.252338181571e-09 0.000000000000e+00
4.900000000000e+01 0.000000000000e+00 2.350000000000e+01 8.438449867227e-11 -3.333736489678e-09 0.000000000000e+00
5.000000000000e+01 0.000000000000e+00 2.350000000000e+01 8.608924592009e-11 -3.333735471089e-09 0.000000000000e+00
4.900000000000e+01 0.000000000000e+00 2.450000000000e+01 1.216875952200e-09 -3.346881277992e-09 0.000000000000e+00
5.000000000000e+01 0.000000000000e+00 2.450000000000e+01 1.241459600706e-09 -3.346880195316e-09 0.000000000000e+00
4.900000000000e+01 0.000000000000e+00 2.550000000000e+01 1.792050820154e-10 -3.360985590226e-09 0.000000000000e+00
5.000000000000e+01 0.000000000000e+00 2.550000000000e+01 1.828254220146e-10 -3.360984590496e-09 0.000000000000e+00
4.900000000000e+01 0.000000000000e+00 2.650000000000e+01 1.305331860613e-09 -3.375981947877e-09 0.000000000000e+00
5.000000000000e+01 0.000000000000e+00 2.650000000000e+01 1.331702633745e-09 -3.375980841421e-09 0.000000000000e+00
4.900000000000e+01 0.000000000000e+00 2.750000000000e+01 7.422674603999e-08 -4.138970084779e-09 0.000000000000e+00
5.000000000000e+01 0.000000000000e+00 2.750000000000e+01 7.572628962780e-08 -4.138970638930e-09 0.000000000000e+00
4.900000000000e+01 0.000000000000e+00 2.850000000000e+01 6.132645354223e-10 -4.895081151523e-09 0.000000000000e+00
5.000000000000e+01 0.000000000000e+00 2.850000000000e+01 6.256538372563e-10 -4.895080773943e-09 0.000000000000e+00
4.900000000000e+01 0.000000000000e+00 2.950000000000e+01 4.297721696658e-08 -5.335411461988e-09 0.000000000000e+00
5.000000000000e+01 0.000000000000e+00 2.950000000000e+01 4.384545146560e-08 -5.335411833061e-09 0.000000000000e+00
