 TITLE = "Profiles along polylines"
 VARIABLES = "DIST" "HEAD" "VELOCITY_X1" "VELOCITY_Y1" "VELOCITY_Z1" 
 ZONE T="TIME=0.000000000000e+00"
0.000000000000e+00 3.000000000000e+01 0.000000000000e+00 0.000000000000e+00 0.000000000000e+00 
1.000000000000e+00 3.000000000000e+01 0.000000000000e+00 0.000000000000e+00 0.000000000000e+00 
2.000000000000e+00 3.000000000000e+01 0.000000000000e+00 0.000000000000e+00 0.000000000000e+00 
3.000000000000e+00 3.000000000000e+01 0.000000000000e+00 0.000000000000e+00 0.000000000000e+00 
4.000000000000e+00 3.000000000000e+01 0.000000000000e+00 0.000000000000e+00 0.000000000000e+00 
5.000000000000e+00 3.000000000000e+01 0.000000000000e+00 0.000000000000e+00 0.000000000000e+00 
6.000000000000e+00 3.000000000000e+01 0.000000000000e+00 0.000000000000e+00 0.000000000000e+00 
7.000000000000e+00 3.000000000000e+01 0.000000000000e+00 0.000000000000e+00 0.000000000000e+00 
8.000000000000e+00 3.000000000000e+01 0.000000000000e+00 0.000000000000e+00 0.000000000000e+00 
9.000000000000e+00 3.000000000000e+01 0.000000000000e+00 0.000000000000e+00 0.000000000000e+00 
1.000000000000e+01 3.000000000000e+01 0.000000000000e+00 0.000000000000e+00 0.000000000000e+00 
1.100000000000e+01 3.000000000000e+01 0.000000000000e+00 0.000000000000e+00 0.000000000000e+00 
1.200000000000e+01 3.000000000000e+01 0.000000000000e+00 0.000000000000e+00 0.000000000000e+00 
1.300000000000e+01 3.000000000000e+01 0.000000000000e+00 0.000000000000e+00 0.000000000000e+00 
1.400000000000e+01 3.000000000000e+01 0.000000000000e+00 0.000000000000e+00 0.000000000000e+00 
1.500000000000e+01 3.000000000000e+01 0.000000000000e+00 0.000000000000e+00 0.000000000000e+00 
1.600000000000e+01 3.000000000000e+01 0.000000000000e+00 0.000000000000e+00 0.000000000000e+00 
1.700000000000e+01 3.000000000000e+01 0.000000000000e+00 0.000000000000e+00 0.000000000000e+00 
1.800000000000e+01 3.000000000000e+01 0.000000000000e+00 0.000000000000e+00 0.000000000000e+00 
1.900000000000e+01 3.000000000000e+01 0.000000000000e+00 0.000000000000e+00 0.000000000000e+00 
2.000000000000e+01 3.000000000000e+01 0.000000000000e+00 0.000000000000e+00 0.000000000000e+00 
2.100000000000e+01 3.000000000000e+01 0.000000000000e+00 0.000000000000e+00 0.000000000000e+00 
2.200000000000e+01 3.000000000000e+01 0.000000000000e+00 0.000000000000e+00 0.000000000000e+00 
2.300000000000e+01 3.000000000000e+01 0.000000000000e+00 0.000000000000e+00 0.000000000000e+00 
2.400000000000e+01 3.000000000000e+01 0.000000000000e+00 0.000000000000e+00 0.000000000000e+00 
2.500000000000e+01 3.000000000000e+01 0.000000000000e+00 0.000000000000e+00 0.000000000000e+00 
2.600000000000e+01 3.000000000000e+01 0.000000000000e+00 0.000000000000e+00 0.000000000000e+00 
2.700000000000e+01 3.000000000000e+01 0.000000000000e+00 0.000000000000e+00 0.000000000000e+00 
2.800000000000e+01 3.000000000000e+01 0.000000000000e+00 0.000000000000e+00 0.000000000000e+00 
2.900000000000e+01 3.000000000000e+01 0.000000000000e+00 0.000000000000e+00 0.000000000000e+00 
3.000000000000e+01 3.000000000000e+01 0.000000000000e+00 0.000000000000e+00 0.000000000000e+00 
 TITLE = "Profiles along polylines"
 VARIABLES = "DIST" "HEAD" "VELOCITY_X1" "VELOCITY_Y1" "VELOCITY_Z1" 
 ZONE T="TIME=1.797693134862e+308"
0.000000000000e+00 3.053897167584e+01 6.148376553020e-10 -6.148396203959e-12 0.000000000000e+00 
1.000000000000e+00 3.053897222854e+01 1.558390917974e-09 -2.173254450030e-11 0.000000000000e+00 
2.000000000000e+00 3.053897305289e+01 1.360901827830e-09 -5.092632749630e-11 0.000000000000e+00 
3.000000000000e+00 3.053898927632e+01 1.384063033019e-09 -7.837670178862e-11 0.000000000000e+00 
4.000000000000e+00 3.053899127643e+01 2.871195791876e-09 -1.209300913853e-10 0.000000000000e+00 
5.000000000000e+00 3.053899386577e+01 1.684926961773e-09 -1.664927483991e-10 0.000000000000e+00 
6.000000000000e+00 3.053905153004e+01 8.963200004771e-09 -2.729751198485e-10 0.000000000000e+00 
7.000000000000e+00 3.053905265908e+01 8.956227550480e-09 -4.521738452363e-10 0.000000000000e+00 
8.000000000000e+00 3.053923773185e+01 4.905537045922e-10 -5.466457935638e-10 0.000000000000e+00 
9.000000000000e+00 3.053927493823e+01 1.616617572323e-08 -7.132141300250e-10 0.000000000000e+00 
1.000000000000e+01 3.053927647265e+01 2.921485802439e-08 -1.167035794239e-09 0.000000000000e+00 
1.100000000000e+01 3.053927946891e+01 1.535513141166e-08 -1.612751892178e-09 0.000000000000e+00 
1.200000000000e+01 3.053930520277e+01 2.367394543344e-09 -1.789983717896e-09 0.000000000000e+00 
1.300000000000e+01 3.053941170389e+01 4.930746125757e-10 -1.818589168558e-09 0.000000000000e+00 
1.400000000000e+01 3.054165464337e+01 1.709099945720e-09 -1.840611165912e-09 0.000000000000e+00 
1.500000000000e+01 3.054168508166e+01 4.149397249706e-09 -1.899197884199e-09 0.000000000000e+00 
1.600000000000e+01 3.054170685870e+01 3.180196903095e-09 -1.972497146484e-09 0.000000000000e+00 
1.700000000000e+01 3.054178406398e+01 7.549364175024e-10 -2.011850609369e-09 0.000000000000e+00 
1.800000000000e+01 3.054327208562e+01 6.247210019230e-10 -2.025647667264e-09 0.000000000000e+00 
1.900000000000e+01 3.054336771089e+01 2.837327866547e-08 -2.315633012468e-09 0.000000000000e+00 
2.000000000000e+01 3.054337029619e+01 2.779115153461e-08 -2.877302717013e-09 0.000000000000e+00 
2.100000000000e+01 3.056050325143e+01 4.167603663935e-10 -3.159402187600e-09 0.000000000000e+00 
2.200000000000e+01 3.056071564632e+01 4.438165510595e-09 -3.207954111133e-09 0.000000000000e+00 
2.300000000000e+01 3.056073797101e+01 4.069113454431e-09 -3.293036920568e-09 0.000000000000e+00 
2.400000000000e+01 3.056289994834e+01 6.572027224672e-10 -3.340307949893e-09 0.000000000000e+00 
2.500000000000e+01 3.056305046383e+01 7.050919254073e-10 -3.353932509425e-09 0.000000000000e+00 
2.600000000000e+01 3.056407683435e+01 7.497666439835e-10 -3.368482827053e-09 0.000000000000e+00 
2.700000000000e+01 3.056421837109e+01 3.814751799797e-08 -3.757475829918e-09 0.000000000000e+00 
2.800000000000e+01 3.056422142265e+01 3.779798847806e-08 -4.517025765346e-09 0.000000000000e+00 
2.900000000000e+01 3.056465824264e+01 2.201539683745e-08 -5.115246422041e-09 0.000000000000e+00 
3.000000000000e+01 3.056466503656e+01 4.341133469748e-08 -5.335412027847e-09 0.000000000000e+00 
