 TITLE = "Profiles along polylines"
 VARIABLES = "DIST" "HEAD" "VELOCITY_X1" "VELOCITY_Y1" "VELOCITY_Z1" 
 ZONE T="TIME=0.000000000000e+00"
0.000000000000e+00 3.000000000000e+01 0.000000000000e+00 0.000000000000e+00 0.000000000000e+00 
1.000000000000e+00 3.000000000000e+01 0.000000000000e+00 0.000000000000e+00 0.000000000000e+00 
2.000000000000e+00 3.000000000000e+01 0.000000000000e+00 0.000000000000e+00 0.000000000000e+00 
3.000000000000e+00 3.000000000000e+01 0.000000000000e+00 0.000000000000e+00 0.000000000000e+00 
4.000000000000e+00 3.000000000000e+01 0.000000000000e+00 0.000000000000e+00 0.000000000000e+00 
5.000000000000e+00 3.000000000000e+01 0.000000000000e+00 0.000000000000e+00 0.000000000000e+00 
6.000000000000e+00 3.000000000000e+01 0.000000000000e+00 0.000000000000e+00 0.000000000000e+00 
7.000000000000e+00 3.000000000000e+01 0.000000000000e+00 0.000000000000e+00 0.000000000000e+00 
8.000000000000e+00 3.000000000000e+01 0.000000000000e+00 0.000000000000e+00 0.000000000000e+00 
9.000000000000e+00 3.000000000000e+01 0.000000000000e+00 0.000000000000e+00 0.000000000000e+00 
1.000000000000e+01 3.000000000000e+01 0.000000000000e+00 0.000000000000e+00 0.000000000000e+00 
1.100000000000e+01 3.000000000000e+01 0.000000000000e+00 0.000000000000e+00 0.000000000000e+00 
1.200000000000e+01 3.000000000000e+01 0.000000000000e+00 0.000000000000e+00 0.000000000000e+00 
1.300000000000e+01 3.000000000000e+01 0.000000000000e+00 0.000000000000e+00 0.000000000000e+00 
1.400000000000e+01 3.000000000000e+01 0.000000000000e+00 0.000000000000e+00 0.000000000000e+00 
1.500000000000e+01 3.000000000000e+01 0.000000000000e+00 0.000000000000e+00 0.000000000000e+00 
1.600000000000e+01 3.000000000000e+01 0.000000000000e+00 0.000000000000e+00 0.000000000000e+00 
1.700000000000e+01 3.000000000000e+01 0.000000000000e+00 0.000000000000e+00 0.000000000000e+00 
1.800000000000e+01 3.000000000000e+01 0.000000000000e+00 0.000000000000e+00 0.000000000000e+00 
1.900000000000e+01 3.000000000000e+01 0.000000000000e+00 0.000000000000e+00 0.000000000000e+00 
2.000000000000e+01 3.000000000000e+01 0.000000000000e+00 0.000000000000e+00 0.000000000000e+00 
2.100000000000e+01 3.000000000000e+01 0.000000000000e+00 0.000000000000e+00 0.000000000000e+00 
2.200000000000e+01 3.000000000000e+01 0.000000000000e+00 0.000000000000e+00 0.000000000000e+00 
2.300000000000e+01 3.000000000000e+01 0.000000000000e+00 0.000000000000e+00 0.000000000000e+00 
2.400000000000e+01 3.000000000000e+01 0.000000000000e+00 0.000000000000e+00 0.000000000000e+00 
2.500000000000e+01 3.000000000000e+01 0.000000000000e+00 0.000000000000e+00 0.000000000000e+00 
2.600000000000e+01 3.000000000000e+01 0.000000000000e+00 0.000000000000e+00 0.000000000000e+00 
2.700000000000e+01 3.000000000000e+01 0.000000000000e+00 0.000000000000e+00 0.000000000000e+00 
2.800000000000e+01 3.000000000000e+01 0.000000000000e+00 0.000000000000e+00 0.000000000000e+00 
2.900000000000e+01 3.000000000000e+01 0.000000000000e+00 0.000000000000e+00 0.000000000000e+00 
3.000000000000e+01 3.000000000000e+01 0.000000000000e+00 0.000000000000e+00 0.000000000000e+00 
 TITLE = "Profiles along polylines"
 VARIABLES = "DIST" "HEAD" "VELOCITY_X1" "VELOCITY_Y1" "VELOCITY_Z1" 
 ZONE T="TIME=1.797693134862e+308"
0.000000000000e+00 3.054035341688e+01 6.148456406904e-12 -6.148448977538e-12 0.000000000000e+00 
1.000000000000e+00 3.054035396959e+01 1.558408678351e-11 -2.173255645228e-11 0.000000000000e+00 
2.000000000000e+00 3.054035479393e+01 1.360888590086e-11 -5.092663105897e-11 0.000000000000e+00 
3.000000000000e+00 3.054037101752e+01 1.384077725061e-11 -7.837739564014e-11 0.000000000000e+00 
4.000000000000e+00 3.054037301765e+01 2.871205821427e-11 -1.209309870096e-10 0.000000000000e+00 
5.000000000000e+00 3.054037560701e+01 1.684912770945e-11 -1.664941657097e-10 0.000000000000e+00 
6.000000000000e+00 3.054043327184e+01 8.963321593499e-11 -2.729766627625e-10 0.000000000000e+00 
7.000000000000e+00 3.054043440089e+01 8.956163378540e-11 -4.521772661081e-10 0.000000000000e+00 
8.000000000000e+00 3.054061947556e+01 4.905704281976e-12 -5.466516271937e-10 0.000000000000e+00 
9.000000000000e+00 3.054065668235e+01 1.616733334864e-10 -7.132332722892e-10 0.000000000000e+00 
1.000000000000e+01 3.054065821682e+01 2.921757076438e-10 -1.167069617658e-09 0.000000000000e+00 
1.100000000000e+01 3.054066121315e+01 1.535685977284e-10 -1.612778532332e-09 0.000000000000e+00 
1.200000000000e+01 3.054068694728e+01 2.367597389229e-11 -1.790001340556e-09 0.000000000000e+00 
1.300000000000e+01 3.054079344941e+01 4.930922575756e-12 -1.818606983321e-09 0.000000000000e+00 
1.400000000000e+01 3.054303641126e+01 1.709147360968e-11 -1.840629621345e-09 0.000000000000e+00 
1.500000000000e+01 3.054306684987e+01 4.149496495224e-11 -1.899216835345e-09 0.000000000000e+00 
1.600000000000e+01 3.054308862712e+01 3.180251245028e-11 -1.972516488085e-09 0.000000000000e+00 
1.700000000000e+01 3.054316583315e+01 7.549432658598e-12 -2.011870263729e-09 0.000000000000e+00 
1.800000000000e+01 3.054465386939e+01 6.247288987651e-12 -2.025667482196e-09 0.000000000000e+00 
1.900000000000e+01 3.054474949558e+01 2.837379557599e-10 -2.315645675115e-09 0.000000000000e+00 
2.000000000000e+01 3.054475208089e+01 2.779063203018e-10 -2.877318766757e-09 0.000000000000e+00 
2.100000000000e+01 3.056188518057e+01 4.167724078672e-12 -3.159428717568e-09 0.000000000000e+00 
2.200000000000e+01 3.056209757725e+01 4.438265896095e-11 -3.207978584000e-09 0.000000000000e+00 
2.300000000000e+01 3.056211990209e+01 4.068960678496e-11 -3.293060750052e-09 0.000000000000e+00 
2.400000000000e+01 3.056428189574e+01 6.572207104692e-12 -3.340332866438e-09 0.000000000000e+00 
2.500000000000e+01 3.056443241234e+01 7.050706266535e-12 -3.353957303958e-09 0.000000000000e+00 
2.600000000000e+01 3.056545879047e+01 7.497770896558e-12 -3.368507794531e-09 0.000000000000e+00 
2.700000000000e+01 3.056560032826e+01 3.814877267906e-10 -3.757474665177e-09 0.000000000000e+00 
2.800000000000e+01 3.056560337980e+01 3.779617662340e-10 -4.517016790255e-09 0.000000000000e+00 
2.900000000000e+01 3.056604020063e+01 2.201606865946e-10 -5.115240431345e-09 0.000000000000e+00 
3.000000000000e+01 3.056604699452e+01 4.340909418248e-10 -5.335390659616e-09 0.000000000000e+00 
