 TITLE = "Profiles along polylines"
 VARIABLES = "DIST" "HEAD" "VELOCITY_X1" "VELOCITY_Y1" "VELOCITY_Z1" 
 ZONE T="TIME=0.000000000000e+00"
0.000000000000e+00 3.000000000000e+01 0.000000000000e+00 0.000000000000e+00 0.000000000000e+00 
1.000000000000e+00 3.000000000000e+01 0.000000000000e+00 0.000000000000e+00 0.000000000000e+00 
2.000000000000e+00 3.000000000000e+01 0.000000000000e+00 0.000000000000e+00 0.000000000000e+00 
3.000000000000e+00 3.000000000000e+01 0.000000000000e+00 0.000000000000e+00 0.000000000000e+00 
4.000000000000e+00 3.000000000000e+01 0.000000000000e+00 0.000000000000e+00 0.000000000000e+00 
5.000000000000e+00 3.000000000000e+01 0.000000000000e+00 0.000000000000e+00 0.000000000000e+00 
6.000000000000e+00 3.000000000000e+01 0.000000000000e+00 0.000000000000e+00 0.000000000000e+00 
7.000000000000e+00 3.000000000000e+01 0.000000000000e+00 0.000000000000e+00 0.000000000000e+00 
8.000000000000e+00 3.000000000000e+01 0.000000000000e+00 0.000000000000e+00 0.000000000000e+00 
9.000000000000e+00 3.000000000000e+01 0.000000000000e+00 0.000000000000e+00 0.000000000000e+00 
1.000000000000e+01 3.000000000000e+01 0.000000000000e+00 0.000000000000e+00 0.000000000000e+00 
1.100000000000e+01 3.000000000000e+01 0.000000000000e+00 0.000000000000e+00 0.000000000000e+00 
1.200000000000e+01 3.000000000000e+01 0.000000000000e+00 0.000000000000e+00 0.000000000000e+00 
1.300000000000e+01 3.000000000000e+01 0.000000000000e+00 0.000000000000e+00 0.000000000000e+00 
1.400000000000e+01 3.000000000000e+01 0.000000000000e+00 0.000000000000e+00 0.000000000000e+00 
1.500000000000e+01 3.000000000000e+01 0.000000000000e+00 0.000000000000e+00 0.000000000000e+00 
1.600000000000e+01 3.000000000000e+01 0.000000000000e+00 0.000000000000e+00 0.000000000000e+00 
1.700000000000e+01 3.000000000000e+01 0.000000000000e+00 0.000000000000e+00 0.000000000000e+00 
1.800000000000e+01 3.000000000000e+01 0.000000000000e+00 0.000000000000e+00 0.000000000000e+00 
1.900000000000e+01 3.000000000000e+01 0.000000000000e+00 0.000000000000e+00 0.000000000000e+00 
2.000000000000e+01 3.000000000000e+01 0.000000000000e+00 0.000000000000e+00 0.000000000000e+00 
2.100000000000e+01 3.000000000000e+01 0.000000000000e+00 0.000000000000e+00 0.000000000000e+00 
2.200000000000e+01 3.000000000000e+01 0.000000000000e+00 0.000000000000e+00 0.000000000000e+00 
2.300000000000e+01 3.000000000000e+01 0.000000000000e+00 0.000000000000e+00 0.000000000000e+00 
2.400000000000e+01 3.000000000000e+01 0.000000000000e+00 0.000000000000e+00 0.000000000000e+00 
2.500000000000e+01 3.000000000000e+01 0.000000000000e+00 0.000000000000e+00 0.000000000000e+00 
2.600000000000e+01 3.000000000000e+01 0.000000000000e+00 0.000000000000e+00 0.000000000000e+00 
2.700000000000e+01 3.000000000000e+01 0.000000000000e+00 0.000000000000e+00 0.000000000000e+00 
2.800000000000e+01 3.000000000000e+01 0.000000000000e+00 0.000000000000e+00 0.000000000000e+00 
2.900000000000e+01 3.000000000000e+01 0.000000000000e+00 0.000000000000e+00 0.000000000000e+00 
3.000000000000e+01 3.000000000000e+01 0.000000000000e+00 0.000000000000e+00 0.000000000000e+00 
 TITLE = "Profiles along polylines"
 VARIABLES = "DIST" "HEAD" "VELOCITY_X1" "VELOCITY_Y1" "VELOCITY_Z1" 
 ZONE T="TIME=1.797693134862e+308"
0.000000000000e+00 3.001037834029e+01 2.204320489071e-08 -1.374629490692e-12 0.000000000000e+00 
1.000000000000e+00 3.001037840499e+01 1.308504471934e-08 -2.190848257535e-12 0.000000000000e+00 
2.000000000000e+00 3.001037916092e+01 1.359829673463e-08 -3.856760253142e-12 0.000000000000e+00 
3.000000000000e+00 3.001037937258e+01 3.545261088694e-08 -6.922914288613e-12 0.000000000000e+00 
4.000000000000e+00 3.001037957080e+01 3.164487003868e-08 -1.111883667215e-11 0.000000000000e+00 
5.000000000000e+00 3.001038045019e+01 2.010215004572e-08 -1.435833810065e-11 0.000000000000e+00 
6.000000000000e+00 3.001038110499e+01 4.404096126377e-08 -1.838331169238e-11 0.000000000000e+00 
7.000000000000e+00 3.001038145150e+01 4.050235351538e-08 -2.369333499293e-11 0.000000000000e+00 
8.000000000000e+00 3.001038299227e+01 8.932671798419e-09 -2.680184324085e-11 0.000000000000e+00 
9.000000000000e+00 3.001053158592e+01 8.111314119415e-10 -2.743466411374e-11 0.000000000000e+00 
1.000000000000e+01 3.001055185265e+01 2.575033376652e-07 -5.031944933419e-11 0.000000000000e+00 
1.100000000000e+01 3.001055200282e+01 2.584678411956e-07 -9.604896135003e-11 0.000000000000e+00 
1.200000000000e+01 3.001058941864e+01 3.799919872603e-08 -1.227850896875e-10 0.000000000000e+00 
1.300000000000e+01 3.001059126322e+01 6.690653399702e-08 -1.333778016740e-10 0.000000000000e+00 
1.400000000000e+01 3.001059368828e+01 4.433176602859e-08 -1.446731540509e-10 0.000000000000e+00 
1.500000000000e+01 3.001059943535e+01 3.157090563451e-07 -1.820947202538e-10 0.000000000000e+00 
1.600000000000e+01 3.001059981242e+01 7.178900992304e-07 -2.899191375172e-10 0.000000000000e+00 
1.700000000000e+01 3.001060027700e+01 4.163674863547e-07 -4.084067052534e-10 0.000000000000e+00 
1.800000000000e+01 3.001115619860e+01 7.548936469471e-07 -7.533382673786e-10 0.000000000000e+00 
1.900000000000e+01 3.001115697621e+01 8.040568317480e-07 -1.376852254303e-09 0.000000000000e+00 
2.000000000000e+01 3.001117604108e+01 5.583464217269e-08 -1.723716449994e-09 0.000000000000e+00 
2.100000000000e+01 3.001133321332e+01 3.175362485434e-08 -1.773515330773e-09 0.000000000000e+00 
2.200000000000e+01 3.001137294538e+01 5.932210050821e-07 -2.319672185147e-09 0.000000000000e+00 
2.300000000000e+01 3.001137577076e+01 6.500033047185e-07 -3.417060843195e-09 0.000000000000e+00 
2.400000000000e+01 3.001140318204e+01 2.638926282415e-07 -4.250667835195e-09 0.000000000000e+00 
2.500000000000e+01 3.001141721832e+01 1.825015270849e-07 -4.693948820055e-09 0.000000000000e+00 
2.600000000000e+01 3.001458192698e+01 7.908696425515e-09 -4.957158211227e-09 0.000000000000e+00 
2.700000000000e+01 3.001503117796e+01 1.631163341438e-08 -5.208449535616e-09 0.000000000000e+00 
2.800000000000e+01 3.001539426993e+01 1.138692743899e-08 -5.508203883549e-09 0.000000000000e+00 
2.900000000000e+01 3.001711473655e+01 3.927168377971e-09 -5.679669553390e-09 0.000000000000e+00 
3.000000000000e+01 3.001907070017e+01 3.715897168090e-09 -5.725445787455e-09 0.000000000000e+00 
