VARIABLES = "X","Y","Z",VELOCITY1_X,VELOCITY1_Y,VELOCITY1_Z
ZONE T="0.000000000000e+00s", 
9.990000000000e+02 0.000000000000e+00 5.000000000000e-01 0.000000000000e+00 0.000000000000e+00 0.000000000000e+00
9.990000000000e+02 0.000000000000e+00 1.500000000000e+00 0.000000000000e+00 0.000000000000e+00 0.000000000000e+00
9.990000000000e+02 0.000000000000e+00 2.500000000000e+00 0.000000000000e+00 0.000000000000e+00 0.000000000000e+00
9.990000000000e+02 0.000000000000e+00 3.500000000000e+00 0.000000000000e+00 0.000000000000e+00 0.000000000000e+00
9.990000000000e+02 0.000000000000e+00 4.500000000000e+00 0.000000000000e+00 0.000000000000e+00 0.000000000000e+00
9.990000000000e+02 0.000000000000e+00 5.500000000000e+00 0.000000000000e+00 0.000000000000e+00 0.000000000000e+00
9.990000000000e+02 0.000000000000e+00 6.500000000000e+00 0.000000000000e+00 0.000000000000e+00 0.000000000000e+00
9.990000000000e+02 0.000000000000e+00 7.500000000000e+00 0.000000000000e+00 0.000000000000e+00 0.000000000000e+00
9.990000000000e+02 0.000000000000e+00 8.500000000000e+00 0.000000000000e+00 0.000000000000e+00 0.000000000000e+00
9.990000000000e+02 0.000000000000e+00 9.500000000000e+00 0.000000000000e+00 0.000000000000e+00 0.000000000000e+00
9.990000000000e+02 0.000000000000e+00 1.050000000000e+01 0.000000000000e+00 0.000000000000e+00 0.000000000000e+00
9.990000000000e+02 0.000000000000e+00 1.150000000000e+01 0.000000000000e+00 0.000000000000e+00 0.000000000000e+00
9.990000000000e+02 0.000000000000e+00 1.250000000000e+01 0.000000000000e+00 0.000000000000e+00 0.000000000000e+00
9.990000000000e+02 0.000000000000e+00 1.350000000000e+01 0.000000000000e+00 0.000000000000e+00 0.000000000000e+00
9.990000000000e+02 0.000000000000e+00 1.450000000000e+01 0.000000000000e+00 0.000000000000e+00 0.000000000000e+00
9.990000000000e+02 0.000000000000e+00 1.550000000000e+01 0.000000000000e+00 0.000000000000e+00 0.000000000000e+00
9.990000000000e+02 0.000000000000e+00 1.650000000000e+01 0.000000000000e+00 0.000000000000e+00 0.000000000000e+00
9.990000000000e+02 0.000000000000e+00 1.750000000000e+01 0.000000000000e+00 0.000000000000e+00 0.000000000000e+00
9.990000000000e+02 0.000000000000e+00 1.850000000000e+01 0.000000000000e+00 0.000000000000e+00 0.000000000000e+00
9.990000000000e+02 0.000000000000e+00 1.950000000000e+01 0.000000000000e+00 0.000000000000e+00 0.000000000000e+00
9.990000000000e+02 0.000000000000e+00 2.050000000000e+01 0.000000000000e+00 0.000000000000e+00 0.000000000000e+00
9.990000000000e+02 0.000000000000e+00 2.150000000000e+01 0.000000000000e+00 0.000000000000e+00 0.000000000000e+00
9.990000000000e+02 0.000000000000e+00 2.250000000000e+01 0.000000000000e+00 0.000000000000e+00 0.000000000000e+00
9.990000000000e+02 0.000000000000e+00 2.350000000000e+01 0.000000000000e+00 0.000000000000e+00 0.000000000000e+00
9.990000000000e+02 0.000000000000e+00 2.450000000000e+01 0.000000000000e+00 0.000000000000e+00 0.000000000000e+00
9.990000000000e+02 0.000000000000e+00 2.550000000000e+01 0.000000000000e+00 0.000000000000e+00 0.000000000000e+00
9.990000000000e+02 0.000000000000e+00 2.650000000000e+01 0.000000000000e+00 0.000000000000e+00 0.000000000000e+00
9.990000000000e+02 0.000000000000e+00 2.750000000000e+01 0.000000000000e+00 0.000000000000e+00 0.000000000000e+00
9.990000000000e+02 0.000000000000e+00 2.850000000000e+01 0.000000000000e+00 0.000000000000e+00 0.000000000000e+00
9.990000000000e+02 0.000000000000e+00 2.950000000000e+01 0.000000000000e+00 0.000000000000e+00 0.000000000000e+00
VARIABLES = "X","Y","Z",VELOCITY1_X,VELOCITY1_Y,VELOCITY1_Z
ZONE T="1.797693134862e+308s", 
9.990000000000e+02 0.000000000000e+00 5.000000000000e-01 2.205700177077e-08 -1.226298610247e-13 0.000000000000e+00
9.990000000000e+02 0.000000000000e+00 1.500000000000e+00 4.129363090568e-09 -2.682765313748e-13 0.000000000000e+00
9.990000000000e+02 0.000000000000e+00 2.500000000000e+00 2.308405267124e-08 -4.198870687522e-13 0.000000000000e+00
9.990000000000e+02 0.000000000000e+00 3.500000000000e+00 4.786529412052e-08 -8.154053564965e-13 0.000000000000e+00
9.990000000000e+02 0.000000000000e+00 4.500000000000e+00 1.546346644398e-08 -1.168626836106e-12 0.000000000000e+00
9.990000000000e+02 0.000000000000e+00 5.500000000000e+00 2.476510764429e-08 -1.393475552121e-12 0.000000000000e+00
9.990000000000e+02 0.000000000000e+00 6.500000000000e+00 6.337110351834e-08 -1.886912809392e-12 0.000000000000e+00
9.990000000000e+02 0.000000000000e+00 7.500000000000e+00 1.768304526917e-08 -2.341137119108e-12 0.000000000000e+00
9.990000000000e+02 0.000000000000e+00 8.500000000000e+00 1.915650342303e-10 -2.441683064691e-12 0.000000000000e+00
9.990000000000e+02 0.000000000000e+00 9.500000000000e+00 1.429964572266e-09 -2.454162651601e-12 0.000000000000e+00
9.990000000000e+02 0.000000000000e+00 1.050000000000e+01 5.140344201437e-07 -6.559689290795e-12 0.000000000000e+00
9.990000000000e+02 0.000000000000e+00 1.150000000000e+01 3.357342098736e-09 -1.068338965751e-11 0.000000000000e+00
9.990000000000e+02 0.000000000000e+00 1.250000000000e+01 7.270908750477e-08 -1.137727411271e-11 0.000000000000e+00
9.990000000000e+02 0.000000000000e+00 1.350000000000e+01 6.123111902775e-08 -1.260707905047e-11 0.000000000000e+00
9.990000000000e+02 0.000000000000e+00 1.450000000000e+01 2.751304088517e-08 -1.342954894949e-11 0.000000000000e+00
9.990000000000e+02 0.000000000000e+00 1.550000000000e+01 6.045602279827e-07 -1.942193344088e-11 0.000000000000e+00
9.990000000000e+02 0.000000000000e+00 1.650000000000e+01 8.327220977841e-07 -3.307366246431e-11 0.000000000000e+00
9.990000000000e+02 0.000000000000e+00 1.750000000000e+01 8.673195758222e-10 -4.101388263761e-11 0.000000000000e+00
9.990000000000e+02 0.000000000000e+00 1.850000000000e+01 1.515395818552e-06 -1.040003478799e-10 0.000000000000e+00
9.990000000000e+02 0.000000000000e+00 1.950000000000e+01 9.959535637735e-08 -1.715114962285e-10 0.000000000000e+00
9.990000000000e+02 0.000000000000e+00 2.050000000000e+01 1.247631633233e-08 -1.771031314180e-10 0.000000000000e+00
9.990000000000e+02 0.000000000000e+00 2.150000000000e+01 5.151371004204e-08 -1.846365434155e-10 0.000000000000e+00
9.990000000000e+02 0.000000000000e+00 2.250000000000e+01 1.148309176942e-06 -3.492375944558e-10 0.000000000000e+00
9.990000000000e+02 0.000000000000e+00 2.350000000000e+01 1.665028644311e-07 -5.358128770260e-10 0.000000000000e+00
9.990000000000e+02 0.000000000000e+00 2.450000000000e+01 3.683258131794e-07 -6.464329004830e-10 0.000000000000e+00
9.990000000000e+02 0.000000000000e+00 2.550000000000e+01 1.865525341763e-09 -7.401315380112e-10 0.000000000000e+00
9.990000000000e+02 0.000000000000e+00 2.650000000000e+01 1.905628399928e-08 -9.448233861395e-10 0.000000000000e+00
9.990000000000e+02 0.000000000000e+00 2.750000000000e+01 2.665209831033e-08 -1.524186170883e-09 0.000000000000e+00
9.990000000000e+02 0.000000000000e+00 2.850000000000e+01 6.506468004844e-09 -2.222968802654e-09 0.000000000000e+00
9.990000000000e+02 0.000000000000e+00 2.950000000000e+01 8.322187825929e-09 -4.086031625496e-09 0.000000000000e+00
