VARIABLES = "X","Y","Z",VELOCITY1_X,VELOCITY1_Y,VELOCITY1_Z
ZONE T="0.000000000000e+00s", 
9.890000000000e+02 0.000000000000e+00 5.000000000000e-01 0.000000000000e+00 0.000000000000e+00 0.000000000000e+00
9.900000000000e+02 0.000000000000e+00 5.000000000000e-01 0.000000000000e+00 0.000000000000e+00 0.000000000000e+00
9.890000000000e+02 0.000000000000e+00 1.500000000000e+00 0.000000000000e+00 0.000000000000e+00 0.000000000000e+00
9.900000000000e+02 0.000000000000e+00 1.500000000000e+00 0.000000000000e+00 0.000000000000e+00 0.000000000000e+00
9.890000000000e+02 0.000000000000e+00 2.500000000000e+00 0.000000000000e+00 0.000000000000e+00 0.000000000000e+00
9.900000000000e+02 0.000000000000e+00 2.500000000000e+00 0.000000000000e+00 0.000000000000e+00 0.000000000000e+00
9.890000000000e+02 0.000000000000e+00 3.500000000000e+00 0.000000000000e+00 0.000000000000e+00 0.000000000000e+00
9.900000000000e+02 0.000000000000e+00 3.500000000000e+00 0.000000000000e+00 0.000000000000e+00 0.000000000000e+00
9.890000000000e+02 0.000000000000e+00 4.500000000000e+00 0.000000000000e+00 0.000000000000e+00 0.000000000000e+00
9.900000000000e+02 0.000000000000e+00 4.500000000000e+00 0.000000000000e+00 0.000000000000e+00 0.000000000000e+00
9.890000000000e+02 0.000000000000e+00 5.500000000000e+00 0.000000000000e+00 0.000000000000e+00 0.000000000000e+00
9.900000000000e+02 0.000000000000e+00 5.500000000000e+00 0.000000000000e+00 0.000000000000e+00 0.000000000000e+00
9.890000000000e+02 0.000000000000e+00 6.500000000000e+00 0.000000000000e+00 0.000000000000e+00 0.000000000000e+00
9.900000000000e+02 0.000000000000e+00 6.500000000000e+00 0.000000000000e+00 0.000000000000e+00 0.000000000000e+00
9.890000000000e+02 0.000000000000e+00 7.500000000000e+00 0.000000000000e+00 0.000000000000e+00 0.000000000000e+00
9.900000000000e+02 0.000000000000e+00 7.500000000000e+00 0.000000000000e+00 0.000000000000e+00 0.000000000000e+00
9.890000000000e+02 0.000000000000e+00 8.500000000000e+00 0.000000000000e+00 0.000000000000e+00 0.000000000000e+00
9.900000000000e+02 0.000000000000e+00 8.500000000000e+00 0.000000000000e+00 0.000000000000e+00 0.000000000000e+00
9.890000000000e+02 0.000000000000e+00 9.500000000000e+00 0.000000000000e+00 0.000000000000e+00 0.000000000000e+00
9.900000000000e+02 0.000000000000e+00 9.500000000000e+00 0.000000000000e+00 0.000000000000e+00 0.000000000000e+00
9.890000000000e+02 0.000000000000e+00 1.050000000000e+01 0.000000000000e+00 0.000000000000e+00 0.000000000000e+00
9.900000000000e+02 0.000000000000e+00 1.050000000000e+01 0.000000000000e+00 0.000000000000e+00 0.000000000000e+00
9.890000000000e+02 0.000000000000e+00 1.150000000000e+01 0.000000000000e+00 0.000000000000e+00 0.000000000000e+00
9.900000000000e+02 0.000000000000e+00 1.150000000000e+01 0.000000000000e+00 0.000000000000e+00 0.000000000000e+00
9.890000000000e+02 0.000000000000e+00 1.250000000000e+01 0.000000000000e+00 0.000000000000e+00 0.000000000000e+00
9.900000000000e+02 0.000000000000e+00 1.250000000000e+01 0.000000000000e+00 0.000000000000e+00 0.000000000000e+00
9.890000000000e+02 0.000000000000e+00 1.350000000000e+01 0.000000000000e+00 0.000000000000e+00 0.000000000000e+00
9.900000000000e+02 0.000000000000e+00 1.350000000000e+01 0.000000000000e+00 0.000000000000e+00 0.000000000000e+00
9.890000000000e+02 0.000000000000e+00 1.450000000000e+01 0.000000000000e+00 0.000000000000e+00 0.000000000000e+00
9.900000000000e+02 0.000000000000e+00 1.450000000000e+01 0.000000000000e+00 0.000000000000e+00 0.000000000000e+00
9.890000000000e+02 0.000000000000e+00 1.550000000000e+01 0.000000000000e+00 0.000000000000e+00 0.000000000000e+00
9.900000000000e+02 0.000000000000e+00 1.550000000000e+01 0.000000000000e+00 0.000000000000e+00 0.000000000000e+00
9.890000000000e+02 0.000000000000e+00 1.650000000000e+01 0.000000000000e+00 0.000000000000e+00 0.000000000000e+00
9.900000000000e+02 0.000000000000e+00 1.650000000000e+01 0.000000000000e+00 0.000000000000e+00 0.000000000000e+00
9.890000000000e+02 0.000000000000e+00 1.750000000000e+01 0.000000000000e+00 0.000000000000e+00 0.000000000000e+00
9.900000000000e+02 0.000000000000e+00 1.750000000000e+01 0.000000000000e+00 0.000000000000e+00 0.000000000000e+00
9.890000000000e+02 0.000000000000e+00 1.850000000000e+01 0.000000000000e+00 0.000000000000e+00 0.000000000000e+00
9.900000000000e+02 0.000000000000e+00 1.850000000000e+01 0.000000000000e+00 0.000000000000e+00 0.000000000000e+00
9.890000000000e+02 0.000000000000e+00 1.950000000000e+01 0.000000000000e+00 0.000000000000e+00 0.000000000000e+00
9.900000000000e+02 0.000000000000e+00 1.950000000000e+01 0.000000000000e+00 0.000000000000e+00 0.000000000000e+00
9.890000000000e+02 0.000000000000e+00 2.050000000000e+01 0.000000000000e+00 0.000000000000e+00 0.000000000000e+00
9.900000000000e+02 0.000000000000e+00 2.050000000000e+01 0.000000000000e+00 0.000000000000e+00 0.000000000000e+00
9.890000000000e+02 0.000000000000e+00 2.150000000000e+01 0.000000000000e+00 0.000000000000e+00 0.000000000000e+00
9.900000000000e+02 0.000000000000e+00 2.150000000000e+01 0.000000000000e+00 0.000000000000e+00 0.000000000000e+00
9.890000000000e+02 0.000000000000e+00 2.250000000000e+01 0.000000000000e+00 0.000000000000e+00 0.000000000000e+00
9.900000000000e+02 0.000000000000e+00 2.250000000000e+01 0.000000000000e+00 0.000000000000e+00 0.000000000000e+00
9.890000000000e+02 0.000000000000e+00 2.350000000000e+01 0.000000000000e+00 0.000000000000e+00 0.000000000000e+00
9.900000000000e+02 0.000000000000e+00 2.350000000000e+01 0.000000000000e+00 0.000000000000e+00 0.000000000000e+00
9.890000000000e+02 0.000000000000e+00 2.450000000000e+01 0.000000000000e+00 0.000000000000e+00 0.000000000000e+00
9.900000000000e+02 0.000000000000e+00 2.450000000000e+01 0.000000000000e+00 0.000000000000e+00 0.000000000000e+00
9.890000000000e+02 0.000000000000e+00 2.550000000000e+01 0.000000000000e+00 0.000000000000e+00 0.000000000000e+00
9.900000000000e+02 0.000000000000e+00 2.550000000000e+01 0.000000000000e+00 0.000000000000e+00 0.000000000000e+00
9.890000000000e+02 0.000000000000e+00 2.650000000000e+01 0.000000000000e+00 0.000000000000e+00 0.000000000000e+00
9.900000000000e+02 0.000000000000e+00 2.650000000000e+01 0.000000000000e+00 0.000000000000e+00 0.000000000000e+00
9.890000000000e+02 0.000000000000e+00 2.750000000000e+01 0.000000000000e+00 0.000000000000e+00 0.000000000000e+00
9.900000000000e+02 0.000000000000e+00 2.750000000000e+01 0.000000000000e+00 0.000000000000e+00 0.000000000000e+00
9.890000000000e+02 0.000000000000e+00 2.850000000000e+01 0.000000000000e+00 0.000000000000e+00 0.000000000000e+00
9.900000000000e+02 0.000000000000e+00 2.850000000000e+01 0.000000000000e+00 0.000000000000e+00 0.000000000000e+00
9.890000000000e+02 0.000000000000e+00 2.950000000000e+01 0.000000000000e+00 0.000000000000e+00 0.000000000000e+00
9.900000000000e+02 0.000000000000e+00 2.950000000000e+01 0.000000000000e+00 0.000000000000e+00 0.000000000000e+00
VARIABLES = "X","Y","Z",VELOCITY1_X,VELOCITY1_Y,VELOCITY1_Z
ZONE T="1.797693134862e+308s", 
9.890000000000e+02 0.000000000000e+00 5.000000000000e-01 2.204184575034e-08 -1.495070641296e-12 0.000000000000e+00
9.900000000000e+02 0.000000000000e+00 5.000000000000e-01 2.204459467702e-08 -1.359281532848e-12 0.000000000000e+00
9.890000000000e+02 0.000000000000e+00 1.500000000000e+00 4.126524699322e-09 -3.270519159108e-12 0.000000000000e+00
9.900000000000e+02 0.000000000000e+00 1.500000000000e+00 4.127039511076e-09 -2.973494381537e-12 0.000000000000e+00
9.890000000000e+02 0.000000000000e+00 2.500000000000e+00 2.306815857629e-08 -5.118781044344e-12 0.000000000000e+00
9.900000000000e+02 0.000000000000e+00 2.500000000000e+00 2.307104130006e-08 -4.653908718999e-12 0.000000000000e+00
9.890000000000e+02 0.000000000000e+00 3.500000000000e+00 4.783232048492e-08 -9.940024837933e-12 0.000000000000e+00
9.900000000000e+02 0.000000000000e+00 3.500000000000e+00 4.783830090191e-08 -9.037344174668e-12 0.000000000000e+00
9.890000000000e+02 0.000000000000e+00 4.500000000000e+00 1.545280673269e-08 -1.424571925336e-11 0.000000000000e+00
9.900000000000e+02 0.000000000000e+00 4.500000000000e+00 1.545474006258e-08 -1.295207409587e-11 0.000000000000e+00
9.890000000000e+02 0.000000000000e+00 5.500000000000e+00 2.474800010049e-08 -1.698652449627e-11 0.000000000000e+00
9.900000000000e+02 0.000000000000e+00 5.500000000000e+00 2.475110277782e-08 -1.544402396470e-11 0.000000000000e+00
9.890000000000e+02 0.000000000000e+00 6.500000000000e+00 6.332726069225e-08 -2.300068313001e-11 0.000000000000e+00
9.900000000000e+02 0.000000000000e+00 6.500000000000e+00 6.333521201674e-08 -2.091217029633e-11 0.000000000000e+00
9.890000000000e+02 0.000000000000e+00 7.500000000000e+00 1.767079687952e-08 -2.853659950265e-11 0.000000000000e+00
9.900000000000e+02 0.000000000000e+00 7.500000000000e+00 1.767301821092e-08 -2.594554101934e-11 0.000000000000e+00
9.890000000000e+02 0.000000000000e+00 8.500000000000e+00 1.914264146825e-10 -2.976209012957e-11 0.000000000000e+00
9.900000000000e+02 0.000000000000e+00 8.500000000000e+00 1.914515406739e-10 -2.705980404555e-11 0.000000000000e+00
9.890000000000e+02 0.000000000000e+00 9.500000000000e+00 1.428606768686e-09 -2.991284153553e-11 0.000000000000e+00
9.900000000000e+02 0.000000000000e+00 9.500000000000e+00 1.428852173008e-09 -2.719707932107e-11 0.000000000000e+00
9.890000000000e+02 0.000000000000e+00 1.050000000000e+01 5.135308458636e-07 -7.946435908004e-11 0.000000000000e+00
9.900000000000e+02 0.000000000000e+00 1.050000000000e+01 5.136218332193e-07 -7.232574503031e-11 0.000000000000e+00
9.890000000000e+02 0.000000000000e+00 1.150000000000e+01 3.353999970032e-09 -1.292294156256e-10 0.000000000000e+00
9.900000000000e+02 0.000000000000e+00 1.150000000000e+01 3.354603527686e-09 -1.176498257601e-10 0.000000000000e+00
9.890000000000e+02 0.000000000000e+00 1.250000000000e+01 7.262787617394e-08 -1.375174663340e-10 0.000000000000e+00
9.900000000000e+02 0.000000000000e+00 1.250000000000e+01 7.264249152506e-08 -1.252109573750e-10 0.000000000000e+00
9.890000000000e+02 0.000000000000e+00 1.350000000000e+01 6.116227647464e-08 -1.521986851786e-10 0.000000000000e+00
9.900000000000e+02 0.000000000000e+00 1.350000000000e+01 6.117466310956e-08 -1.386056965376e-10 0.000000000000e+00
9.890000000000e+02 0.000000000000e+00 1.450000000000e+01 2.748178728979e-08 -1.620083921757e-10 0.000000000000e+00
9.900000000000e+02 0.000000000000e+00 1.450000000000e+01 2.748740836583e-08 -1.475570753102e-10 0.000000000000e+00
9.890000000000e+02 0.000000000000e+00 1.550000000000e+01 6.038600777781e-07 -2.333069593397e-10 0.000000000000e+00
9.900000000000e+02 0.000000000000e+00 1.550000000000e+01 6.039859004680e-07 -2.126415308830e-10 0.000000000000e+00
9.890000000000e+02 0.000000000000e+00 1.650000000000e+01 8.317559387635e-07 -3.956938485628e-10 0.000000000000e+00
9.900000000000e+02 0.000000000000e+00 1.650000000000e+01 8.319295455580e-07 -3.608813517553e-10 0.000000000000e+00
9.890000000000e+02 0.000000000000e+00 1.750000000000e+01 8.659503457887e-10 -4.900935732463e-10 0.000000000000e+00
9.900000000000e+02 0.000000000000e+00 1.750000000000e+01 8.661913736196e-10 -4.470631267611e-10 0.000000000000e+00
9.890000000000e+02 0.000000000000e+00 1.850000000000e+01 1.508291226202e-06 -1.129373444282e-09 0.000000000000e+00
9.900000000000e+02 0.000000000000e+00 1.850000000000e+01 1.509493943766e-06 -1.044736206560e-09 0.000000000000e+00
9.890000000000e+02 0.000000000000e+00 1.950000000000e+01 9.911926836805e-08 -1.812527727895e-09 0.000000000000e+00
9.900000000000e+02 0.000000000000e+00 1.950000000000e+01 9.919949493707e-08 -1.683623782149e-09 0.000000000000e+00
9.890000000000e+02 0.000000000000e+00 2.050000000000e+01 1.240190189265e-08 -1.864546710594e-09 0.000000000000e+00
9.900000000000e+02 0.000000000000e+00 2.050000000000e+01 1.241383974124e-08 -1.732701223230e-09 0.000000000000e+00
9.890000000000e+02 0.000000000000e+00 2.150000000000e+01 5.095409681318e-08 -1.915548205900e-09 0.000000000000e+00
9.900000000000e+02 0.000000000000e+00 2.150000000000e+01 5.103540869776e-08 -1.782695028440e-09 0.000000000000e+00
9.890000000000e+02 0.000000000000e+00 2.250000000000e+01 1.134348460938e-06 -2.969750937652e-09 0.000000000000e+00
9.900000000000e+02 0.000000000000e+00 2.250000000000e+01 1.136338858293e-06 -2.822216118696e-09 0.000000000000e+00
9.890000000000e+02 0.000000000000e+00 2.350000000000e+01 1.643979578353e-07 -4.134290755736e-09 0.000000000000e+00
9.900000000000e+02 0.000000000000e+00 2.350000000000e+01 1.646921549969e-07 -3.972125322777e-09 0.000000000000e+00
9.890000000000e+02 0.000000000000e+00 2.450000000000e+01 3.627504328173e-07 -4.646822869573e-09 0.000000000000e+00
9.900000000000e+02 0.000000000000e+00 2.450000000000e+01 3.634607514668e-07 -4.486640280013e-09 0.000000000000e+00
9.890000000000e+02 0.000000000000e+00 2.550000000000e+01 1.759442645071e-09 -5.014811242560e-09 0.000000000000e+00
9.900000000000e+02 0.000000000000e+00 2.550000000000e+01 1.766854578286e-09 -4.858937746539e-09 0.000000000000e+00
9.890000000000e+02 0.000000000000e+00 2.650000000000e+01 1.378094298620e-08 -5.146190806234e-09 0.000000000000e+00
9.900000000000e+02 0.000000000000e+00 2.650000000000e+01 1.405901048693e-08 -5.016955607421e-09 0.000000000000e+00
9.890000000000e+02 0.000000000000e+00 2.750000000000e+01 1.838557240522e-08 -5.441749976503e-09 0.000000000000e+00
9.900000000000e+02 0.000000000000e+00 2.750000000000e+01 1.878879167835e-08 -5.373229911109e-09 0.000000000000e+00
9.890000000000e+02 0.000000000000e+00 2.850000000000e+01 4.077112659008e-09 -5.654933511927e-09 0.000000000000e+00
9.900000000000e+02 0.000000000000e+00 2.850000000000e+01 4.169914691659e-09 -5.630551564730e-09 0.000000000000e+00
9.890000000000e+02 0.000000000000e+00 2.950000000000e+01 3.664189296585e-09 -5.732325531855e-09 0.000000000000e+00
9.900000000000e+02 0.000000000000e+00 2.950000000000e+01 3.752079141367e-09 -5.724347581925e-09 0.000000000000e+00
