VARIABLES = "X","Y","Z",VELOCITY1_X,VELOCITY1_Y,VELOCITY1_Z
ZONE T="0.000000000000e+00s", 
8.990000000000e+02 0.000000000000e+00 5.000000000000e-01 0.000000000000e+00 0.000000000000e+00 0.000000000000e+00
9.000000000000e+02 0.000000000000e+00 5.000000000000e-01 0.000000000000e+00 0.000000000000e+00 0.000000000000e+00
8.990000000000e+02 0.000000000000e+00 1.500000000000e+00 0.000000000000e+00 0.000000000000e+00 0.000000000000e+00
9.000000000000e+02 0.000000000000e+00 1.500000000000e+00 0.000000000000e+00 0.000000000000e+00 0.000000000000e+00
8.990000000000e+02 0.000000000000e+00 2.500000000000e+00 0.000000000000e+00 0.000000000000e+00 0.000000000000e+00
9.000000000000e+02 0.000000000000e+00 2.500000000000e+00 0.000000000000e+00 0.000000000000e+00 0.000000000000e+00
8.990000000000e+02 0.000000000000e+00 3.500000000000e+00 0.000000000000e+00 0.000000000000e+00 0.000000000000e+00
9.000000000000e+02 0.000000000000e+00 3.500000000000e+00 0.000000000000e+00 0.000000000000e+00 0.000000000000e+00
8.990000000000e+02 0.000000000000e+00 4.500000000000e+00 0.000000000000e+00 0.000000000000e+00 0.000000000000e+00
9.000000000000e+02 0.000000000000e+00 4.500000000000e+00 0.000000000000e+00 0.000000000000e+00 0.000000000000e+00
8.990000000000e+02 0.000000000000e+00 5.500000000000e+00 0.000000000000e+00 0.000000000000e+00 0.000000000000e+00
9.000000000000e+02 0.000000000000e+00 5.500000000000e+00 0.000000000000e+00 0.000000000000e+00 0.000000000000e+00
8.990000000000e+02 0.000000000000e+00 6.500000000000e+00 0.000000000000e+00 0.000000000000e+00 0.000000000000e+00
9.000000000000e+02 0.000000000000e+00 6.500000000000e+00 0.000000000000e+00 0.000000000000e+00 0.000000000000e+00
8.990000000000e+02 0.000000000000e+00 7.500000000000e+00 0.000000000000e+00 0.000000000000e+00 0.000000000000e+00
9.000000000000e+02 0.000000000000e+00 7.500000000000e+00 0.000000000000e+00 0.000000000000e+00 0.000000000000e+00
8.990000000000e+02 0.000000000000e+00 8.500000000000e+00 0.000000000000e+00 0.000000000000e+00 0.000000000000e+00
9.000000000000e+02 0.000000000000e+00 8.500000000000e+00 0.000000000000e+00 0.000000000000e+00 0.000000000000e+00
8.990000000000e+02 0.000000000000e+00 9.500000000000e+00 0.000000000000e+00 0.000000000000e+00 0.000000000000e+00
9.000000000000e+02 0.000000000000e+00 9.500000000000e+00 0.000000000000e+00 0.000000000000e+00 0.000000000000e+00
8.990000000000e+02 0.000000000000e+00 1.050000000000e+01 0.000000000000e+00 0.000000000000e+00 0.000000000000e+00
9.000000000000e+02 0.000000000000e+00 1.050000000000e+01 0.000000000000e+00 0.000000000000e+00 0.000000000000e+00
8.990000000000e+02 0.000000000000e+00 1.150000000000e+01 0.000000000000e+00 0.000000000000e+00 0.000000000000e+00
9.000000000000e+02 0.000000000000e+00 1.150000000000e+01 0.000000000000e+00 0.000000000000e+00 0.000000000000e+00
8.990000000000e+02 0.000000000000e+00 1.250000000000e+01 0.000000000000e+00 0.000000000000e+00 0.000000000000e+00
9.000000000000e+02 0.000000000000e+00 1.250000000000e+01 0.000000000000e+00 0.000000000000e+00 0.000000000000e+00
8.990000000000e+02 0.000000000000e+00 1.350000000000e+01 0.000000000000e+00 0.000000000000e+00 0.000000000000e+00
9.000000000000e+02 0.000000000000e+00 1.350000000000e+01 0.000000000000e+00 0.000000000000e+00 0.000000000000e+00
8.990000000000e+02 0.000000000000e+00 1.450000000000e+01 0.000000000000e+00 0.000000000000e+00 0.000000000000e+00
9.000000000000e+02 0.000000000000e+00 1.450000000000e+01 0.000000000000e+00 0.000000000000e+00 0.000000000000e+00
8.990000000000e+02 0.000000000000e+00 1.550000000000e+01 0.000000000000e+00 0.000000000000e+00 0.000000000000e+00
9.000000000000e+02 0.000000000000e+00 1.550000000000e+01 0.000000000000e+00 0.000000000000e+00 0.000000000000e+00
8.990000000000e+02 0.000000000000e+00 1.650000000000e+01 0.000000000000e+00 0.000000000000e+00 0.000000000000e+00
9.000000000000e+02 0.000000000000e+00 1.650000000000e+01 0.000000000000e+00 0.000000000000e+00 0.000000000000e+00
8.990000000000e+02 0.000000000000e+00 1.750000000000e+01 0.000000000000e+00 0.000000000000e+00 0.000000000000e+00
9.000000000000e+02 0.000000000000e+00 1.750000000000e+01 0.000000000000e+00 0.000000000000e+00 0.000000000000e+00
8.990000000000e+02 0.000000000000e+00 1.850000000000e+01 0.000000000000e+00 0.000000000000e+00 0.000000000000e+00
9.000000000000e+02 0.000000000000e+00 1.850000000000e+01 0.000000000000e+00 0.000000000000e+00 0.000000000000e+00
8.990000000000e+02 0.000000000000e+00 1.950000000000e+01 0.000000000000e+00 0.000000000000e+00 0.000000000000e+00
9.000000000000e+02 0.000000000000e+00 1.950000000000e+01 0.000000000000e+00 0.000000000000e+00 0.000000000000e+00
8.990000000000e+02 0.000000000000e+00 2.050000000000e+01 0.000000000000e+00 0.000000000000e+00 0.000000000000e+00
9.000000000000e+02 0.000000000000e+00 2.050000000000e+01 0.000000000000e+00 0.000000000000e+00 0.000000000000e+00
8.990000000000e+02 0.000000000000e+00 2.150000000000e+01 0.000000000000e+00 0.000000000000e+00 0.000000000000e+00
9.000000000000e+02 0.000000000000e+00 2.150000000000e+01 0.000000000000e+00 0.000000000000e+00 0.000000000000e+00
8.990000000000e+02 0.000000000000e+00 2.250000000000e+01 0.000000000000e+00 0.000000000000e+00 0.000000000000e+00
9.000000000000e+02 0.000000000000e+00 2.250000000000e+01 0.000000000000e+00 0.000000000000e+00 0.000000000000e+00
8.990000000000e+02 0.000000000000e+00 2.350000000000e+01 0.000000000000e+00 0.000000000000e+00 0.000000000000e+00
9.000000000000e+02 0.000000000000e+00 2.350000000000e+01 0.000000000000e+00 0.000000000000e+00 0.000000000000e+00
8.990000000000e+02 0.000000000000e+00 2.450000000000e+01 0.000000000000e+00 0.000000000000e+00 0.000000000000e+00
9.000000000000e+02 0.000000000000e+00 2.450000000000e+01 0.000000000000e+00 0.000000000000e+00 0.000000000000e+00
8.990000000000e+02 0.000000000000e+00 2.550000000000e+01 0.000000000000e+00 0.000000000000e+00 0.000000000000e+00
9.000000000000e+02 0.000000000000e+00 2.550000000000e+01 0.000000000000e+00 0.000000000000e+00 0.000000000000e+00
8.990000000000e+02 0.000000000000e+00 2.650000000000e+01 0.000000000000e+00 0.000000000000e+00 0.000000000000e+00
9.000000000000e+02 0.000000000000e+00 2.650000000000e+01 0.000000000000e+00 0.000000000000e+00 0.000000000000e+00
8.990000000000e+02 0.000000000000e+00 2.750000000000e+01 0.000000000000e+00 0.000000000000e+00 0.000000000000e+00
9.000000000000e+02 0.000000000000e+00 2.750000000000e+01 0.000000000000e+00 0.000000000000e+00 0.000000000000e+00
8.990000000000e+02 0.000000000000e+00 2.850000000000e+01 0.000000000000e+00 0.000000000000e+00 0.000000000000e+00
9.000000000000e+02 0.000000000000e+00 2.850000000000e+01 0.000000000000e+00 0.000000000000e+00 0.000000000000e+00
8.990000000000e+02 0.000000000000e+00 2.950000000000e+01 0.000000000000e+00 0.000000000000e+00 0.000000000000e+00
9.000000000000e+02 0.000000000000e+00 2.950000000000e+01 0.000000000000e+00 0.000000000000e+00 0.000000000000e+00
VARIABLES = "X","Y","Z",VELOCITY1_X,VELOCITY1_Y,VELOCITY1_Z
ZONE T="1.797693134862e+308s", 
8.990000000000e+02 0.000000000000e+00 5.000000000000e-01 2.091831687164e-08 -9.563679301011e-12 0.000000000000e+00
9.000000000000e+02 0.000000000000e+00 5.000000000000e-01 2.093736649013e-08 -9.520250417665e-12 0.000000000000e+00
8.990000000000e+02 0.000000000000e+00 1.500000000000e+00 3.916149976596e-09 -2.091916124264e-11 0.000000000000e+00
9.000000000000e+02 0.000000000000e+00 1.500000000000e+00 3.919716591424e-09 -2.082419096294e-11 0.000000000000e+00
8.990000000000e+02 0.000000000000e+00 2.500000000000e+00 2.189115822818e-08 -3.272398868217e-11 0.000000000000e+00
9.000000000000e+02 0.000000000000e+00 2.500000000000e+00 2.191110386627e-08 -3.257553008334e-11 0.000000000000e+00
8.990000000000e+02 0.000000000000e+00 3.500000000000e+00 4.539118218827e-08 -6.350480546014e-11 0.000000000000e+00
9.000000000000e+02 0.000000000000e+00 3.500000000000e+00 4.543254457849e-08 -6.321696779322e-11 0.000000000000e+00
8.990000000000e+02 0.000000000000e+00 4.500000000000e+00 1.466391257228e-08 -9.098349780806e-11 0.000000000000e+00
9.000000000000e+02 0.000000000000e+00 4.500000000000e+00 1.467727717020e-08 -9.057131578201e-11 0.000000000000e+00
8.990000000000e+02 0.000000000000e+00 5.500000000000e+00 2.348330038821e-08 -1.084465201234e-10 0.000000000000e+00
9.000000000000e+02 0.000000000000e+00 5.500000000000e+00 2.350471392964e-08 -1.079554860515e-10 0.000000000000e+00
8.990000000000e+02 0.000000000000e+00 6.500000000000e+00 6.008868296560e-08 -1.467185424005e-10 0.000000000000e+00
9.000000000000e+02 0.000000000000e+00 6.500000000000e+00 6.014349601506e-08 -1.460550005029e-10 0.000000000000e+00
8.990000000000e+02 0.000000000000e+00 7.500000000000e+00 1.676659527460e-08 -1.819234093226e-10 0.000000000000e+00
9.000000000000e+02 0.000000000000e+00 7.500000000000e+00 1.678189422282e-08 -1.811013478532e-10 0.000000000000e+00
8.990000000000e+02 0.000000000000e+00 8.500000000000e+00 1.814230757923e-10 -1.896939878572e-10 0.000000000000e+00
9.000000000000e+02 0.000000000000e+00 8.500000000000e+00 1.815904148886e-10 -1.888370797534e-10 0.000000000000e+00
8.990000000000e+02 0.000000000000e+00 9.500000000000e+00 1.342611022221e-09 -1.904537913454e-10 0.000000000000e+00
9.000000000000e+02 0.000000000000e+00 9.500000000000e+00 1.343947385796e-09 -1.895947070624e-10 0.000000000000e+00
8.990000000000e+02 0.000000000000e+00 1.050000000000e+01 4.820786091741e-07 -4.339678480446e-10 0.000000000000e+00
9.000000000000e+02 0.000000000000e+00 1.050000000000e+01 4.825631332461e-07 -4.324605286818e-10 0.000000000000e+00
8.990000000000e+02 0.000000000000e+00 1.150000000000e+01 3.147565744332e-09 -6.784065132232e-10 0.000000000000e+00
9.000000000000e+02 0.000000000000e+00 1.150000000000e+01 3.150734578464e-09 -6.762494007112e-10 0.000000000000e+00
8.990000000000e+02 0.000000000000e+00 1.250000000000e+01 6.798990979691e-08 -7.147471632537e-10 0.000000000000e+00
9.000000000000e+02 0.000000000000e+00 1.250000000000e+01 6.805923589919e-08 -7.125061907499e-10 0.000000000000e+00
8.990000000000e+02 0.000000000000e+00 1.350000000000e+01 5.724840129157e-08 -7.787671967126e-10 0.000000000000e+00
9.000000000000e+02 0.000000000000e+00 1.350000000000e+01 5.730681603776e-08 -7.763796025248e-10 0.000000000000e+00
8.990000000000e+02 0.000000000000e+00 1.450000000000e+01 2.571782105902e-08 -8.212149555475e-10 0.000000000000e+00
9.000000000000e+02 0.000000000000e+00 1.450000000000e+01 2.574408922120e-08 -8.187310822441e-10 0.000000000000e+00
8.990000000000e+02 0.000000000000e+00 1.550000000000e+01 5.648834326296e-07 -1.123978920680e-09 0.000000000000e+00
9.000000000000e+02 0.000000000000e+00 1.550000000000e+01 5.654614529664e-07 -1.120823544683e-09 0.000000000000e+00
8.990000000000e+02 0.000000000000e+00 1.650000000000e+01 7.780466765927e-07 -1.812491670401e-09 0.000000000000e+00
9.000000000000e+02 0.000000000000e+00 1.650000000000e+01 7.788429150083e-07 -1.807811526954e-09 0.000000000000e+00
8.990000000000e+02 0.000000000000e+00 1.750000000000e+01 8.061026438495e-10 -2.211857361084e-09 0.000000000000e+00
9.000000000000e+02 0.000000000000e+00 1.750000000000e+01 8.069422091791e-10 -2.206294653974e-09 0.000000000000e+00
8.990000000000e+02 0.000000000000e+00 1.850000000000e+01 1.353042301022e-06 -3.011147882205e-09 0.000000000000e+00
9.000000000000e+02 0.000000000000e+00 1.850000000000e+01 1.354642042779e-06 -3.006756106598e-09 0.000000000000e+00
8.990000000000e+02 0.000000000000e+00 1.950000000000e+01 8.890016019633e-08 -3.862466371631e-09 0.000000000000e+00
9.000000000000e+02 0.000000000000e+00 1.950000000000e+01 8.900528365056e-08 -3.859323407350e-09 0.000000000000e+00
8.990000000000e+02 0.000000000000e+00 2.050000000000e+01 1.109802907132e-08 -3.921546943202e-09 0.000000000000e+00
9.000000000000e+02 0.000000000000e+00 2.050000000000e+01 1.111116852139e-08 -3.918491687584e-09 0.000000000000e+00
8.990000000000e+02 0.000000000000e+00 2.150000000000e+01 4.517228340519e-08 -3.954970402907e-09 0.000000000000e+00
9.000000000000e+02 0.000000000000e+00 2.150000000000e+01 4.522603020512e-08 -3.951969226504e-09 0.000000000000e+00
8.990000000000e+02 0.000000000000e+00 2.250000000000e+01 1.003374536595e-06 -4.578553981683e-09 0.000000000000e+00
9.000000000000e+02 0.000000000000e+00 2.250000000000e+01 1.004569754341e-06 -4.576582615125e-09 0.000000000000e+00
8.990000000000e+02 0.000000000000e+00 2.350000000000e+01 1.453842539429e-07 -5.261731778133e-09 0.000000000000e+00
9.000000000000e+02 0.000000000000e+00 2.350000000000e+01 1.455574435193e-07 -5.260889835531e-09 0.000000000000e+00
8.990000000000e+02 0.000000000000e+00 2.450000000000e+01 3.205073147095e-07 -5.538841119499e-09 0.000000000000e+00
9.000000000000e+02 0.000000000000e+00 2.450000000000e+01 3.208891597558e-07 -5.538457873097e-09 0.000000000000e+00
8.990000000000e+02 0.000000000000e+00 2.550000000000e+01 1.538834627724e-09 -5.730392300915e-09 0.000000000000e+00
9.000000000000e+02 0.000000000000e+00 2.550000000000e+01 1.540668172279e-09 -5.730326405478e-09 0.000000000000e+00
8.990000000000e+02 0.000000000000e+00 2.650000000000e+01 1.118371212823e-08 -5.737966133087e-09 0.000000000000e+00
9.000000000000e+02 0.000000000000e+00 2.650000000000e+01 1.119704778329e-08 -5.737912939678e-09 0.000000000000e+00
8.990000000000e+02 0.000000000000e+00 2.750000000000e+01 1.479445925663e-08 -5.753432221230e-09 0.000000000000e+00
9.000000000000e+02 0.000000000000e+00 2.750000000000e+01 1.481210197077e-08 -5.753404958247e-09 0.000000000000e+00
8.990000000000e+02 0.000000000000e+00 2.850000000000e+01 3.268088080583e-09 -5.764185804103e-09 0.000000000000e+00
9.000000000000e+02 0.000000000000e+00 2.850000000000e+01 3.271985497634e-09 -5.764176601037e-09 0.000000000000e+00
8.990000000000e+02 0.000000000000e+00 2.950000000000e+01 2.921332905073e-09 -5.767870917754e-09 0.000000000000e+00
9.000000000000e+02 0.000000000000e+00 2.950000000000e+01 2.924816967078e-09 -5.767867943408e-09 0.000000000000e+00
