 TITLE = "Profiles along polylines"
 VARIABLES = "DIST" "HEAD" "VELOCITY_X1" "VELOCITY_Y1" "VELOCITY_Z1" 
 ZONE T="TIME=0.000000000000e+00"
0.000000000000e+00 3.000000000000e+01 0.000000000000e+00 0.000000000000e+00 0.000000000000e+00 
1.000000000000e+00 3.000000000000e+01 0.000000000000e+00 0.000000000000e+00 0.000000000000e+00 
2.000000000000e+00 3.000000000000e+01 0.000000000000e+00 0.000000000000e+00 0.000000000000e+00 
3.000000000000e+00 3.000000000000e+01 0.000000000000e+00 0.000000000000e+00 0.000000000000e+00 
4.000000000000e+00 3.000000000000e+01 0.000000000000e+00 0.000000000000e+00 0.000000000000e+00 
5.000000000000e+00 3.000000000000e+01 0.000000000000e+00 0.000000000000e+00 0.000000000000e+00 
6.000000000000e+00 3.000000000000e+01 0.000000000000e+00 0.000000000000e+00 0.000000000000e+00 
7.000000000000e+00 3.000000000000e+01 0.000000000000e+00 0.000000000000e+00 0.000000000000e+00 
8.000000000000e+00 3.000000000000e+01 0.000000000000e+00 0.000000000000e+00 0.000000000000e+00 
9.000000000000e+00 3.000000000000e+01 0.000000000000e+00 0.000000000000e+00 0.000000000000e+00 
1.000000000000e+01 3.000000000000e+01 0.000000000000e+00 0.000000000000e+00 0.000000000000e+00 
1.100000000000e+01 3.000000000000e+01 0.000000000000e+00 0.000000000000e+00 0.000000000000e+00 
1.200000000000e+01 3.000000000000e+01 0.000000000000e+00 0.000000000000e+00 0.000000000000e+00 
1.300000000000e+01 3.000000000000e+01 0.000000000000e+00 0.000000000000e+00 0.000000000000e+00 
1.400000000000e+01 3.000000000000e+01 0.000000000000e+00 0.000000000000e+00 0.000000000000e+00 
1.500000000000e+01 3.000000000000e+01 0.000000000000e+00 0.000000000000e+00 0.000000000000e+00 
1.600000000000e+01 3.000000000000e+01 0.000000000000e+00 0.000000000000e+00 0.000000000000e+00 
1.700000000000e+01 3.000000000000e+01 0.000000000000e+00 0.000000000000e+00 0.000000000000e+00 
1.800000000000e+01 3.000000000000e+01 0.000000000000e+00 0.000000000000e+00 0.000000000000e+00 
1.900000000000e+01 3.000000000000e+01 0.000000000000e+00 0.000000000000e+00 0.000000000000e+00 
2.000000000000e+01 3.000000000000e+01 0.000000000000e+00 0.000000000000e+00 0.000000000000e+00 
2.100000000000e+01 3.000000000000e+01 0.000000000000e+00 0.000000000000e+00 0.000000000000e+00 
2.200000000000e+01 3.000000000000e+01 0.000000000000e+00 0.000000000000e+00 0.000000000000e+00 
2.300000000000e+01 3.000000000000e+01 0.000000000000e+00 0.000000000000e+00 0.000000000000e+00 
2.400000000000e+01 3.000000000000e+01 0.000000000000e+00 0.000000000000e+00 0.000000000000e+00 
2.500000000000e+01 3.000000000000e+01 0.000000000000e+00 0.000000000000e+00 0.000000000000e+00 
2.600000000000e+01 3.000000000000e+01 0.000000000000e+00 0.000000000000e+00 0.000000000000e+00 
2.700000000000e+01 3.000000000000e+01 0.000000000000e+00 0.000000000000e+00 0.000000000000e+00 
2.800000000000e+01 3.000000000000e+01 0.000000000000e+00 0.000000000000e+00 0.000000000000e+00 
2.900000000000e+01 3.000000000000e+01 0.000000000000e+00 0.000000000000e+00 0.000000000000e+00 
3.000000000000e+01 3.000000000000e+01 0.000000000000e+00 0.000000000000e+00 0.000000000000e+00 
 TITLE = "Profiles along polylines"
 VARIABLES = "DIST" "HEAD" "VELOCITY_X1" "VELOCITY_Y1" "VELOCITY_Z1" 
 ZONE T="TIME=1.797693134862e+308"
0.000000000000e+00 3.023825709982e+01 1.761010092611e-08 -1.165470524489e-11 0.000000000000e+00 
1.000000000000e+00 3.023825764832e+01 1.045345105749e-08 -1.857256542367e-11 0.000000000000e+00 
2.000000000000e+00 3.023826405625e+01 1.086271242692e-08 -3.267965447639e-11 0.000000000000e+00 
3.000000000000e+00 3.023826584923e+01 2.832000945647e-08 -5.861165350588e-11 0.000000000000e+00 
4.000000000000e+00 3.023826752697e+01 2.527786754273e-08 -9.408345308296e-11 0.000000000000e+00 
5.000000000000e+00 3.023827496667e+01 1.605624204067e-08 -1.214391892042e-10 0.000000000000e+00 
6.000000000000e+00 3.023828050348e+01 3.517479615395e-08 -1.553465834727e-10 0.000000000000e+00 
7.000000000000e+00 3.023828343028e+01 3.234751968379e-08 -2.000361502502e-10 0.000000000000e+00 
8.000000000000e+00 3.023829643391e+01 7.133120010908e-09 -2.261662244735e-10 0.000000000000e+00 
9.000000000000e+00 3.023955015497e+01 6.388491717281e-10 -2.313119872647e-10 0.000000000000e+00 
1.000000000000e+01 3.023972091309e+01 2.024321458450e-07 -3.663428985671e-10 0.000000000000e+00 
1.100000000000e+01 3.023972194172e+01 2.031875730081e-07 -6.360391325710e-10 0.000000000000e+00 
1.200000000000e+01 3.023996447430e+01 2.976982120527e-08 -7.909333977827e-10 0.000000000000e+00 
1.300000000000e+01 3.023997628617e+01 5.240794462290e-08 -8.455997773222e-10 0.000000000000e+00 
1.400000000000e+01 3.023999152125e+01 3.471743022074e-08 -9.035564379005e-10 0.000000000000e+00 
1.500000000000e+01 3.024002721567e+01 2.471110953049e-07 -1.091060314943e-09 0.000000000000e+00 
1.600000000000e+01 3.024002941759e+01 5.618861710259e-07 -1.629280433827e-09 0.000000000000e+00 
1.700000000000e+01 3.024003196826e+01 3.258734835416e-07 -2.219875896383e-09 0.000000000000e+00 
1.800000000000e+01 3.024302907387e+01 5.627145606149e-07 -2.812552204354e-09 0.000000000000e+00 
1.900000000000e+01 3.024303142463e+01 5.993276774218e-07 -3.588716171279e-09 0.000000000000e+00 
2.000000000000e+01 3.024307618613e+01 4.156265612269e-08 -4.016748248538e-09 0.000000000000e+00 
2.100000000000e+01 3.024343975883e+01 2.338208155698e-08 -4.060129967306e-09 0.000000000000e+00 
2.200000000000e+01 3.024352979482e+01 4.356589752818e-07 -4.366832003441e-09 0.000000000000e+00 
2.300000000000e+01 3.024353442752e+01 4.772945558634e-07 -4.976759714524e-09 0.000000000000e+00 
2.400000000000e+01 3.024357077761e+01 1.935709115287e-07 -5.424934141084e-09 0.000000000000e+00 
2.500000000000e+01 3.024358807170e+01 1.338050942637e-07 -5.643650602094e-09 0.000000000000e+00 
2.600000000000e+01 3.024730603388e+01 5.285815974964e-09 -5.736571912175e-09 0.000000000000e+00 
2.700000000000e+01 3.024781826078e+01 1.079303346472e-08 -5.747314529378e-09 0.000000000000e+00 
2.800000000000e+01 3.024820644775e+01 7.504348472178e-09 -5.759538916032e-09 0.000000000000e+00 
2.900000000000e+01 3.024996681477e+01 2.571478054870e-09 -5.766270521084e-09 0.000000000000e+00 
3.000000000000e+01 3.025193731215e+01 2.427410661595e-09 -5.767988619186e-09 0.000000000000e+00 
