 TITLE = "Profiles along polylines"
 VARIABLES = "DIST" "HEAD" "VELOCITY_X1" "VELOCITY_Y1" "VELOCITY_Z1" 
 ZONE T="TIME=0.000000000000e+00"
0.000000000000e+00 3.000000000000e+01 0.000000000000e+00 0.000000000000e+00 0.000000000000e+00 
1.000000000000e+00 3.000000000000e+01 0.000000000000e+00 0.000000000000e+00 0.000000000000e+00 
2.000000000000e+00 3.000000000000e+01 0.000000000000e+00 0.000000000000e+00 0.000000000000e+00 
3.000000000000e+00 3.000000000000e+01 0.000000000000e+00 0.000000000000e+00 0.000000000000e+00 
4.000000000000e+00 3.000000000000e+01 0.000000000000e+00 0.000000000000e+00 0.000000000000e+00 
5.000000000000e+00 3.000000000000e+01 0.000000000000e+00 0.000000000000e+00 0.000000000000e+00 
6.000000000000e+00 3.000000000000e+01 0.000000000000e+00 0.000000000000e+00 0.000000000000e+00 
7.000000000000e+00 3.000000000000e+01 0.000000000000e+00 0.000000000000e+00 0.000000000000e+00 
8.000000000000e+00 3.000000000000e+01 0.000000000000e+00 0.000000000000e+00 0.000000000000e+00 
9.000000000000e+00 3.000000000000e+01 0.000000000000e+00 0.000000000000e+00 0.000000000000e+00 
1.000000000000e+01 3.000000000000e+01 0.000000000000e+00 0.000000000000e+00 0.000000000000e+00 
1.100000000000e+01 3.000000000000e+01 0.000000000000e+00 0.000000000000e+00 0.000000000000e+00 
1.200000000000e+01 3.000000000000e+01 0.000000000000e+00 0.000000000000e+00 0.000000000000e+00 
1.300000000000e+01 3.000000000000e+01 0.000000000000e+00 0.000000000000e+00 0.000000000000e+00 
1.400000000000e+01 3.000000000000e+01 0.000000000000e+00 0.000000000000e+00 0.000000000000e+00 
1.500000000000e+01 3.000000000000e+01 0.000000000000e+00 0.000000000000e+00 0.000000000000e+00 
1.600000000000e+01 3.000000000000e+01 0.000000000000e+00 0.000000000000e+00 0.000000000000e+00 
1.700000000000e+01 3.000000000000e+01 0.000000000000e+00 0.000000000000e+00 0.000000000000e+00 
1.800000000000e+01 3.000000000000e+01 0.000000000000e+00 0.000000000000e+00 0.000000000000e+00 
1.900000000000e+01 3.000000000000e+01 0.000000000000e+00 0.000000000000e+00 0.000000000000e+00 
2.000000000000e+01 3.000000000000e+01 0.000000000000e+00 0.000000000000e+00 0.000000000000e+00 
2.100000000000e+01 3.000000000000e+01 0.000000000000e+00 0.000000000000e+00 0.000000000000e+00 
2.200000000000e+01 3.000000000000e+01 0.000000000000e+00 0.000000000000e+00 0.000000000000e+00 
2.300000000000e+01 3.000000000000e+01 0.000000000000e+00 0.000000000000e+00 0.000000000000e+00 
2.400000000000e+01 3.000000000000e+01 0.000000000000e+00 0.000000000000e+00 0.000000000000e+00 
2.500000000000e+01 3.000000000000e+01 0.000000000000e+00 0.000000000000e+00 0.000000000000e+00 
2.600000000000e+01 3.000000000000e+01 0.000000000000e+00 0.000000000000e+00 0.000000000000e+00 
2.700000000000e+01 3.000000000000e+01 0.000000000000e+00 0.000000000000e+00 0.000000000000e+00 
2.800000000000e+01 3.000000000000e+01 0.000000000000e+00 0.000000000000e+00 0.000000000000e+00 
2.900000000000e+01 3.000000000000e+01 0.000000000000e+00 0.000000000000e+00 0.000000000000e+00 
3.000000000000e+01 3.000000000000e+01 0.000000000000e+00 0.000000000000e+00 0.000000000000e+00 
 TITLE = "Profiles along polylines"
 VARIABLES = "DIST" "HEAD" "VELOCITY_X1" "VELOCITY_Y1" "VELOCITY_Z1" 
 ZONE T="TIME=1.797693134862e+308"
0.000000000000e+00 3.054777415853e+01 1.174392294231e-09 -1.174446912005e-11 0.000000000000e+00 
1.000000000000e+00 3.054777471125e+01 6.971255332399e-10 -1.871727143741e-11 0.000000000000e+00 
2.000000000000e+00 3.054778116937e+01 7.244176146479e-10 -3.293480064006e-11 0.000000000000e+00 
3.000000000000e+00 3.054778297632e+01 1.888617248324e-09 -5.906792311649e-11 0.000000000000e+00 
4.000000000000e+00 3.054778466712e+01 1.685740963917e-09 -9.481699654457e-11 0.000000000000e+00 
5.000000000000e+00 3.054779216490e+01 1.070763706333e-09 -1.223864477980e-10 0.000000000000e+00 
6.000000000000e+00 3.054779774487e+01 2.345745146590e-09 -1.565549321851e-10 0.000000000000e+00 
7.000000000000e+00 3.054780069440e+01 2.157197760961e-09 -2.015907373177e-10 0.000000000000e+00 
8.000000000000e+00 3.054781379913e+01 4.756936320890e-10 -2.279246258599e-10 0.000000000000e+00 
9.000000000000e+00 3.054907726707e+01 4.259254412451e-11 -2.331083692787e-10 0.000000000000e+00 
1.000000000000e+01 3.054924934989e+01 1.349582447246e-08 -3.684994683512e-10 0.000000000000e+00 
1.100000000000e+01 3.054925038369e+01 1.354618543876e-08 -6.389593868498e-10 0.000000000000e+00 
1.200000000000e+01 3.054949396207e+01 1.984649683411e-09 -7.943017970746e-10 0.000000000000e+00 
1.300000000000e+01 3.054950582365e+01 3.493849195559e-09 -8.490940541645e-10 0.000000000000e+00 
1.400000000000e+01 3.054952112062e+01 2.314482306730e-09 -9.071878455516e-10 0.000000000000e+00 
1.500000000000e+01 3.054955695702e+01 1.647391693173e-08 -1.095084083722e-09 0.000000000000e+00 
1.600000000000e+01 3.054955916660e+01 3.745871386885e-08 -1.634474669871e-09 0.000000000000e+00 
1.700000000000e+01 3.054956172494e+01 2.172468414225e-08 -2.226418066334e-09 0.000000000000e+00 
1.800000000000e+01 3.055256751128e+01 3.750490730370e-08 -2.818784967530e-09 0.000000000000e+00 
1.900000000000e+01 3.055256986603e+01 3.994516720860e-08 -3.593403129361e-09 0.000000000000e+00 
2.000000000000e+01 3.055261467203e+01 2.770146214131e-09 -4.020661462934e-09 0.000000000000e+00 
2.100000000000e+01 3.055297859177e+01 1.558398481770e-09 -4.063953553864e-09 0.000000000000e+00 
2.200000000000e+01 3.055306871141e+01 2.903628438371e-08 -4.369918812403e-09 0.000000000000e+00 
2.300000000000e+01 3.055307334648e+01 3.181125683186e-08 -4.978486629798e-09 0.000000000000e+00 
2.400000000000e+01 3.055310970389e+01 1.290132625346e-08 -5.425701445668e-09 0.000000000000e+00 
2.500000000000e+01 3.055312699944e+01 8.917988198448e-09 -5.643926189508e-09 0.000000000000e+00 
2.600000000000e+01 3.055684501571e+01 3.522943056440e-10 -5.736646729895e-09 0.000000000000e+00 
2.700000000000e+01 3.055735724851e+01 7.193446758334e-10 -5.747364383500e-09 0.000000000000e+00 
2.800000000000e+01 3.055774543774e+01 5.001571406521e-10 -5.759561473872e-09 0.000000000000e+00 
2.900000000000e+01 3.055950580832e+01 1.713863634784e-10 -5.766278143297e-09 0.000000000000e+00 
3.000000000000e+01 3.056147630693e+01 1.617844152409e-10 -5.767992212457e-09 0.000000000000e+00 
