VARIABLES = "X","Y","Z",VELOCITY1_X,VELOCITY1_Y,VELOCITY1_Z
ZONE T="0.000000000000e+00s", 
0.000000000000e+00 0.000000000000e+00 5.000000000000e-01 0.000000000000e+00 0.000000000000e+00 0.000000000000e+00
0.000000000000e+00 0.000000000000e+00 1.500000000000e+00 0.000000000000e+00 0.000000000000e+00 0.000000000000e+00
0.000000000000e+00 0.000000000000e+00 2.500000000000e+00 0.000000000000e+00 0.000000000000e+00 0.000000000000e+00
0.000000000000e+00 0.000000000000e+00 3.500000000000e+00 0.000000000000e+00 0.000000000000e+00 0.000000000000e+00
0.000000000000e+00 0.000000000000e+00 4.500000000000e+00 0.000000000000e+00 0.000000000000e+00 0.000000000000e+00
0.000000000000e+00 0.000000000000e+00 5.500000000000e+00 0.000000000000e+00 0.000000000000e+00 0.000000000000e+00
0.000000000000e+00 0.000000000000e+00 6.500000000000e+00 0.000000000000e+00 0.000000000000e+00 0.000000000000e+00
0.000000000000e+00 0.000000000000e+00 7.500000000000e+00 0.000000000000e+00 0.000000000000e+00 0.000000000000e+00
0.000000000000e+00 0.000000000000e+00 8.500000000000e+00 0.000000000000e+00 0.000000000000e+00 0.000000000000e+00
0.000000000000e+00 0.000000000000e+00 9.500000000000e+00 0.000000000000e+00 0.000000000000e+00 0.000000000000e+00
0.000000000000e+00 0.000000000000e+00 1.050000000000e+01 0.000000000000e+00 0.000000000000e+00 0.000000000000e+00
0.000000000000e+00 0.000000000000e+00 1.150000000000e+01 0.000000000000e+00 0.000000000000e+00 0.000000000000e+00
0.000000000000e+00 0.000000000000e+00 1.250000000000e+01 0.000000000000e+00 0.000000000000e+00 0.000000000000e+00
0.000000000000e+00 0.000000000000e+00 1.350000000000e+01 0.000000000000e+00 0.000000000000e+00 0.000000000000e+00
0.000000000000e+00 0.000000000000e+00 1.450000000000e+01 0.000000000000e+00 0.000000000000e+00 0.000000000000e+00
0.000000000000e+00 0.000000000000e+00 1.550000000000e+01 0.000000000000e+00 0.000000000000e+00 0.000000000000e+00
0.000000000000e+00 0.000000000000e+00 1.650000000000e+01 0.000000000000e+00 0.000000000000e+00 0.000000000000e+00
0.000000000000e+00 0.000000000000e+00 1.750000000000e+01 0.000000000000e+00 0.000000000000e+00 0.000000000000e+00
0.000000000000e+00 0.000000000000e+00 1.850000000000e+01 0.000000000000e+00 0.000000000000e+00 0.000000000000e+00
0.000000000000e+00 0.000000000000e+00 1.950000000000e+01 0.000000000000e+00 0.000000000000e+00 0.000000000000e+00
0.000000000000e+00 0.000000000000e+00 2.050000000000e+01 0.000000000000e+00 0.000000000000e+00 0.000000000000e+00
0.000000000000e+00 0.000000000000e+00 2.150000000000e+01 0.000000000000e+00 0.000000000000e+00 0.000000000000e+00
0.000000000000e+00 0.000000000000e+00 2.250000000000e+01 0.000000000000e+00 0.000000000000e+00 0.000000000000e+00
0.000000000000e+00 0.000000000000e+00 2.350000000000e+01 0.000000000000e+00 0.000000000000e+00 0.000000000000e+00
0.000000000000e+00 0.000000000000e+00 2.450000000000e+01 0.000000000000e+00 0.000000000000e+00 0.000000000000e+00
0.000000000000e+00 0.000000000000e+00 2.550000000000e+01 0.000000000000e+00 0.000000000000e+00 0.000000000000e+00
0.000000000000e+00 0.000000000000e+00 2.650000000000e+01 0.000000000000e+00 0.000000000000e+00 0.000000000000e+00
0.000000000000e+00 0.000000000000e+00 2.750000000000e+01 0.000000000000e+00 0.000000000000e+00 0.000000000000e+00
0.000000000000e+00 0.000000000000e+00 2.850000000000e+01 0.000000000000e+00 0.000000000000e+00 0.000000000000e+00
0.000000000000e+00 0.000000000000e+00 2.950000000000e+01 0.000000000000e+00 0.000000000000e+00 0.000000000000e+00
VARIABLES = "X","Y","Z",VELOCITY1_X,VELOCITY1_Y,VELOCITY1_Z
ZONE T="1.797693134862e+308s", 
0.000000000000e+00 0.000000000000e+00 5.000000000000e-01 7.502661112740e-13 -7.502632093924e-13 0.000000000000e+00
0.000000000000e+00 0.000000000000e+00 1.500000000000e+00 3.794615463375e-11 -3.944886433697e-11 0.000000000000e+00
0.000000000000e+00 0.000000000000e+00 2.500000000000e+00 1.618482988315e-12 -7.899782301633e-11 0.000000000000e+00
0.000000000000e+00 0.000000000000e+00 3.500000000000e+00 6.150289436557e-12 -8.676516548083e-11 0.000000000000e+00
0.000000000000e+00 0.000000000000e+00 4.500000000000e+00 3.374164400664e-11 -1.266549032430e-10 0.000000000000e+00
0.000000000000e+00 0.000000000000e+00 5.500000000000e+00 8.054434517725e-11 -2.409293655603e-10 0.000000000000e+00
0.000000000000e+00 0.000000000000e+00 6.500000000000e+00 9.415995109480e-12 -3.308521155299e-10 0.000000000000e+00
0.000000000000e+00 0.000000000000e+00 7.500000000000e+00 1.318796659599e-11 -3.534503578638e-10 0.000000000000e+00
0.000000000000e+00 0.000000000000e+00 8.500000000000e+00 2.199462520139e-12 -3.688328481096e-10 0.000000000000e+00
0.000000000000e+00 0.000000000000e+00 9.500000000000e+00 2.549120576392e-11 -3.965244485706e-10 0.000000000000e+00
0.000000000000e+00 0.000000000000e+00 1.050000000000e+01 8.526642172795e-13 -4.228556517203e-10 0.000000000000e+00
0.000000000000e+00 0.000000000000e+00 1.150000000000e+01 7.499979738864e-10 -1.173792080440e-09 0.000000000000e+00
0.000000000000e+00 0.000000000000e+00 1.250000000000e+01 8.198782470631e-12 -1.931360500985e-09 0.000000000000e+00
0.000000000000e+00 0.000000000000e+00 1.350000000000e+01 3.195691327488e-11 -1.971500232478e-09 0.000000000000e+00
0.000000000000e+00 0.000000000000e+00 1.450000000000e+01 1.775885023666e-10 -2.181037834302e-09 0.000000000000e+00
0.000000000000e+00 0.000000000000e+00 1.550000000000e+01 4.496159935309e-13 -2.358948133158e-09 0.000000000000e+00
0.000000000000e+00 0.000000000000e+00 1.650000000000e+01 1.018481081516e-13 -2.359499038993e-09 0.000000000000e+00
0.000000000000e+00 0.000000000000e+00 1.750000000000e+01 3.152522591529e-10 -2.674880770331e-09 0.000000000000e+00
0.000000000000e+00 0.000000000000e+00 1.850000000000e+01 8.236869591469e-12 -2.998208498491e-09 0.000000000000e+00
0.000000000000e+00 0.000000000000e+00 1.950000000000e+01 1.174982029395e-11 -3.018186281073e-09 0.000000000000e+00
0.000000000000e+00 0.000000000000e+00 2.050000000000e+01 2.503043832669e-11 -3.054961861235e-09 0.000000000000e+00
0.000000000000e+00 0.000000000000e+00 2.150000000000e+01 1.229601568468e-11 -3.092275955321e-09 0.000000000000e+00
0.000000000000e+00 0.000000000000e+00 2.250000000000e+01 1.758235763350e-12 -3.106323161602e-09 0.000000000000e+00
0.000000000000e+00 0.000000000000e+00 2.350000000000e+01 4.927661111205e-11 -3.157361553419e-09 0.000000000000e+00
0.000000000000e+00 0.000000000000e+00 2.450000000000e+01 6.197346109588e-12 -3.212802108036e-09 0.000000000000e+00
0.000000000000e+00 0.000000000000e+00 2.550000000000e+01 4.342120844787e-10 -3.653226851449e-09 0.000000000000e+00
0.000000000000e+00 0.000000000000e+00 2.650000000000e+01 2.692985014052e-10 -4.356508432095e-09 0.000000000000e+00
0.000000000000e+00 0.000000000000e+00 2.750000000000e+01 5.559679454950e-10 -5.181599897278e-09 0.000000000000e+00
0.000000000000e+00 0.000000000000e+00 2.850000000000e+01 1.435657930427e-11 -5.751641791700e-09 0.000000000000e+00
0.000000000000e+00 0.000000000000e+00 2.950000000000e+01 1.810951634201e-12 -5.767799856432e-09 0.000000000000e+00
