VARIABLES = "X","Y","Z",VELOCITY1_X,VELOCITY1_Y,VELOCITY1_Z
ZONE T="0.000000000000e+00s", 
9.890000000000e+02 0.000000000000e+00 5.000000000000e-01 0.000000000000e+00 0.000000000000e+00 0.000000000000e+00
9.900000000000e+02 0.000000000000e+00 5.000000000000e-01 0.000000000000e+00 0.000000000000e+00 0.000000000000e+00
9.890000000000e+02 0.000000000000e+00 1.500000000000e+00 0.000000000000e+00 0.000000000000e+00 0.000000000000e+00
9.900000000000e+02 0.000000000000e+00 1.500000000000e+00 0.000000000000e+00 0.000000000000e+00 0.000000000000e+00
9.890000000000e+02 0.000000000000e+00 2.500000000000e+00 0.000000000000e+00 0.000000000000e+00 0.000000000000e+00
9.900000000000e+02 0.000000000000e+00 2.500000000000e+00 0.000000000000e+00 0.000000000000e+00 0.000000000000e+00
9.890000000000e+02 0.000000000000e+00 3.500000000000e+00 0.000000000000e+00 0.000000000000e+00 0.000000000000e+00
9.900000000000e+02 0.000000000000e+00 3.500000000000e+00 0.000000000000e+00 0.000000000000e+00 0.000000000000e+00
9.890000000000e+02 0.000000000000e+00 4.500000000000e+00 0.000000000000e+00 0.000000000000e+00 0.000000000000e+00
9.900000000000e+02 0.000000000000e+00 4.500000000000e+00 0.000000000000e+00 0.000000000000e+00 0.000000000000e+00
9.890000000000e+02 0.000000000000e+00 5.500000000000e+00 0.000000000000e+00 0.000000000000e+00 0.000000000000e+00
9.900000000000e+02 0.000000000000e+00 5.500000000000e+00 0.000000000000e+00 0.000000000000e+00 0.000000000000e+00
9.890000000000e+02 0.000000000000e+00 6.500000000000e+00 0.000000000000e+00 0.000000000000e+00 0.000000000000e+00
9.900000000000e+02 0.000000000000e+00 6.500000000000e+00 0.000000000000e+00 0.000000000000e+00 0.000000000000e+00
9.890000000000e+02 0.000000000000e+00 7.500000000000e+00 0.000000000000e+00 0.000000000000e+00 0.000000000000e+00
9.900000000000e+02 0.000000000000e+00 7.500000000000e+00 0.000000000000e+00 0.000000000000e+00 0.000000000000e+00
9.890000000000e+02 0.000000000000e+00 8.500000000000e+00 0.000000000000e+00 0.000000000000e+00 0.000000000000e+00
9.900000000000e+02 0.000000000000e+00 8.500000000000e+00 0.000000000000e+00 0.000000000000e+00 0.000000000000e+00
9.890000000000e+02 0.000000000000e+00 9.500000000000e+00 0.000000000000e+00 0.000000000000e+00 0.000000000000e+00
9.900000000000e+02 0.000000000000e+00 9.500000000000e+00 0.000000000000e+00 0.000000000000e+00 0.000000000000e+00
9.890000000000e+02 0.000000000000e+00 1.050000000000e+01 0.000000000000e+00 0.000000000000e+00 0.000000000000e+00
9.900000000000e+02 0.000000000000e+00 1.050000000000e+01 0.000000000000e+00 0.000000000000e+00 0.000000000000e+00
9.890000000000e+02 0.000000000000e+00 1.150000000000e+01 0.000000000000e+00 0.000000000000e+00 0.000000000000e+00
9.900000000000e+02 0.000000000000e+00 1.150000000000e+01 0.000000000000e+00 0.000000000000e+00 0.000000000000e+00
9.890000000000e+02 0.000000000000e+00 1.250000000000e+01 0.000000000000e+00 0.000000000000e+00 0.000000000000e+00
9.900000000000e+02 0.000000000000e+00 1.250000000000e+01 0.000000000000e+00 0.000000000000e+00 0.000000000000e+00
9.890000000000e+02 0.000000000000e+00 1.350000000000e+01 0.000000000000e+00 0.000000000000e+00 0.000000000000e+00
9.900000000000e+02 0.000000000000e+00 1.350000000000e+01 0.000000000000e+00 0.000000000000e+00 0.000000000000e+00
9.890000000000e+02 0.000000000000e+00 1.450000000000e+01 0.000000000000e+00 0.000000000000e+00 0.000000000000e+00
9.900000000000e+02 0.000000000000e+00 1.450000000000e+01 0.000000000000e+00 0.000000000000e+00 0.000000000000e+00
9.890000000000e+02 0.000000000000e+00 1.550000000000e+01 0.000000000000e+00 0.000000000000e+00 0.000000000000e+00
9.900000000000e+02 0.000000000000e+00 1.550000000000e+01 0.000000000000e+00 0.000000000000e+00 0.000000000000e+00
9.890000000000e+02 0.000000000000e+00 1.650000000000e+01 0.000000000000e+00 0.000000000000e+00 0.000000000000e+00
9.900000000000e+02 0.000000000000e+00 1.650000000000e+01 0.000000000000e+00 0.000000000000e+00 0.000000000000e+00
9.890000000000e+02 0.000000000000e+00 1.750000000000e+01 0.000000000000e+00 0.000000000000e+00 0.000000000000e+00
9.900000000000e+02 0.000000000000e+00 1.750000000000e+01 0.000000000000e+00 0.000000000000e+00 0.000000000000e+00
9.890000000000e+02 0.000000000000e+00 1.850000000000e+01 0.000000000000e+00 0.000000000000e+00 0.000000000000e+00
9.900000000000e+02 0.000000000000e+00 1.850000000000e+01 0.000000000000e+00 0.000000000000e+00 0.000000000000e+00
9.890000000000e+02 0.000000000000e+00 1.950000000000e+01 0.000000000000e+00 0.000000000000e+00 0.000000000000e+00
9.900000000000e+02 0.000000000000e+00 1.950000000000e+01 0.000000000000e+00 0.000000000000e+00 0.000000000000e+00
9.890000000000e+02 0.000000000000e+00 2.050000000000e+01 0.000000000000e+00 0.000000000000e+00 0.000000000000e+00
9.900000000000e+02 0.000000000000e+00 2.050000000000e+01 0.000000000000e+00 0.000000000000e+00 0.000000000000e+00
9.890000000000e+02 0.000000000000e+00 2.150000000000e+01 0.000000000000e+00 0.000000000000e+00 0.000000000000e+00
9.900000000000e+02 0.000000000000e+00 2.150000000000e+01 0.000000000000e+00 0.000000000000e+00 0.000000000000e+00
9.890000000000e+02 0.000000000000e+00 2.250000000000e+01 0.000000000000e+00 0.000000000000e+00 0.000000000000e+00
9.900000000000e+02 0.000000000000e+00 2.250000000000e+01 0.000000000000e+00 0.000000000000e+00 0.000000000000e+00
9.890000000000e+02 0.000000000000e+00 2.350000000000e+01 0.000000000000e+00 0.000000000000e+00 0.000000000000e+00
9.900000000000e+02 0.000000000000e+00 2.350000000000e+01 0.000000000000e+00 0.000000000000e+00 0.000000000000e+00
9.890000000000e+02 0.000000000000e+00 2.450000000000e+01 0.000000000000e+00 0.000000000000e+00 0.000000000000e+00
9.900000000000e+02 0.000000000000e+00 2.450000000000e+01 0.000000000000e+00 0.000000000000e+00 0.000000000000e+00
9.890000000000e+02 0.000000000000e+00 2.550000000000e+01 0.000000000000e+00 0.000000000000e+00 0.000000000000e+00
9.900000000000e+02 0.000000000000e+00 2.550000000000e+01 0.000000000000e+00 0.000000000000e+00 0.000000000000e+00
9.890000000000e+02 0.000000000000e+00 2.650000000000e+01 0.000000000000e+00 0.000000000000e+00 0.000000000000e+00
9.900000000000e+02 0.000000000000e+00 2.650000000000e+01 0.000000000000e+00 0.000000000000e+00 0.000000000000e+00
9.890000000000e+02 0.000000000000e+00 2.750000000000e+01 0.000000000000e+00 0.000000000000e+00 0.000000000000e+00
9.900000000000e+02 0.000000000000e+00 2.750000000000e+01 0.000000000000e+00 0.000000000000e+00 0.000000000000e+00
9.890000000000e+02 0.000000000000e+00 2.850000000000e+01 0.000000000000e+00 0.000000000000e+00 0.000000000000e+00
9.900000000000e+02 0.000000000000e+00 2.850000000000e+01 0.000000000000e+00 0.000000000000e+00 0.000000000000e+00
9.890000000000e+02 0.000000000000e+00 2.950000000000e+01 0.000000000000e+00 0.000000000000e+00 0.000000000000e+00
9.900000000000e+02 0.000000000000e+00 2.950000000000e+01 0.000000000000e+00 0.000000000000e+00 0.000000000000e+00
VARIABLES = "X","Y","Z",VELOCITY1_X,VELOCITY1_Y,VELOCITY1_Z
ZONE T="1.797693134862e+308s", 
9.890000000000e+02 0.000000000000e+00 5.000000000000e-01 1.348818348557e-09 -6.566540414291e-14 0.000000000000e+00
9.900000000000e+02 0.000000000000e+00 5.000000000000e-01 1.348939054660e-09 -5.968229922914e-14 0.000000000000e+00
9.890000000000e+02 0.000000000000e+00 1.500000000000e+00 6.821876958990e-08 -3.452847207818e-12 0.000000000000e+00
9.900000000000e+02 0.000000000000e+00 1.500000000000e+00 6.822487519018e-08 -3.138243313960e-12 0.000000000000e+00
9.890000000000e+02 0.000000000000e+00 2.500000000000e+00 2.909397985729e-09 -6.916494528877e-12 0.000000000000e+00
9.900000000000e+02 0.000000000000e+00 2.500000000000e+00 2.909658562727e-09 -6.286264775203e-12 0.000000000000e+00
9.890000000000e+02 0.000000000000e+00 3.500000000000e+00 1.105899220402e-08 -7.600348359915e-12 0.000000000000e+00
9.900000000000e+02 0.000000000000e+00 3.500000000000e+00 1.105998759800e-08 -6.907825535415e-12 0.000000000000e+00
9.890000000000e+02 0.000000000000e+00 4.500000000000e+00 6.067668219805e-08 -1.111769011855e-11 0.000000000000e+00
9.900000000000e+02 0.000000000000e+00 4.500000000000e+00 6.068215135130e-08 -1.010480355432e-11 0.000000000000e+00
9.890000000000e+02 0.000000000000e+00 5.500000000000e+00 1.448382949418e-07 -2.119873069946e-11 0.000000000000e+00
9.900000000000e+02 0.000000000000e+00 5.500000000000e+00 1.448513554559e-07 -1.926766052147e-11 0.000000000000e+00
9.890000000000e+02 0.000000000000e+00 6.500000000000e+00 1.693118168498e-08 -2.913677879137e-11 0.000000000000e+00
9.900000000000e+02 0.000000000000e+00 6.500000000000e+00 1.693270957546e-08 -2.648273443695e-11 0.000000000000e+00
9.890000000000e+02 0.000000000000e+00 7.500000000000e+00 2.371826848102e-08 -3.113949137684e-11 0.000000000000e+00
9.900000000000e+02 0.000000000000e+00 7.500000000000e+00 2.372041724136e-08 -2.830309342912e-11 0.000000000000e+00
9.890000000000e+02 0.000000000000e+00 8.500000000000e+00 3.956344220712e-09 -3.250717322605e-11 0.000000000000e+00
9.900000000000e+02 0.000000000000e+00 8.500000000000e+00 3.956704401422e-09 -2.954626538836e-11 0.000000000000e+00
9.890000000000e+02 0.000000000000e+00 9.500000000000e+00 4.588653802861e-08 -3.501736465073e-11 0.000000000000e+00
9.900000000000e+02 0.000000000000e+00 9.500000000000e+00 4.589078737206e-08 -3.182822819997e-11 0.000000000000e+00
9.890000000000e+02 0.000000000000e+00 1.050000000000e+01 1.535118393231e-09 -3.740991343959e-11 0.000000000000e+00
9.900000000000e+02 0.000000000000e+00 1.050000000000e+01 1.535261698509e-09 -3.400326790270e-11 0.000000000000e+00
9.890000000000e+02 0.000000000000e+00 1.150000000000e+01 1.352963991658e-06 -1.096339466338e-10 0.000000000000e+00
9.900000000000e+02 0.000000000000e+00 1.150000000000e+01 1.353096672470e-06 -9.968690992872e-11 0.000000000000e+00
9.890000000000e+02 0.000000000000e+00 1.250000000000e+01 1.478912348542e-08 -1.825856832152e-10 0.000000000000e+00
9.900000000000e+02 0.000000000000e+00 1.250000000000e+01 1.479058089510e-08 -1.660325095554e-10 0.000000000000e+00
9.890000000000e+02 0.000000000000e+00 1.350000000000e+01 5.771450665992e-08 -1.866110809385e-10 0.000000000000e+00
9.900000000000e+02 0.000000000000e+00 1.350000000000e+01 5.772040863046e-08 -1.696956684441e-10 0.000000000000e+00
9.890000000000e+02 0.000000000000e+00 1.450000000000e+01 3.208214860377e-07 -2.078423016911e-10 0.000000000000e+00
9.900000000000e+02 0.000000000000e+00 1.450000000000e+01 3.208546073240e-07 -1.890194418155e-10 0.000000000000e+00
9.890000000000e+02 0.000000000000e+00 1.550000000000e+01 8.144798468284e-10 -2.259219098279e-10 0.000000000000e+00
9.900000000000e+02 0.000000000000e+00 1.550000000000e+01 8.145734620962e-10 -2.054753009866e-10 0.000000000000e+00
9.890000000000e+02 0.000000000000e+00 1.650000000000e+01 1.909078447313e-10 -2.260337346647e-10 0.000000000000e+00
9.900000000000e+02 0.000000000000e+00 1.650000000000e+01 1.909558113975e-10 -2.055781297107e-10 0.000000000000e+00
9.890000000000e+02 0.000000000000e+00 1.750000000000e+01 6.472256123048e-07 -4.314413090034e-10 0.000000000000e+00
9.900000000000e+02 0.000000000000e+00 1.750000000000e+01 6.476091055577e-07 -3.958251275774e-10 0.000000000000e+00
9.890000000000e+02 0.000000000000e+00 1.850000000000e+01 1.691431851900e-08 -6.426280072471e-10 0.000000000000e+00
9.900000000000e+02 0.000000000000e+00 1.850000000000e+01 1.692456463469e-08 -5.914625420869e-10 0.000000000000e+00
9.890000000000e+02 0.000000000000e+00 1.950000000000e+01 2.419993133958e-08 -6.578785009965e-10 0.000000000000e+00
9.900000000000e+02 0.000000000000e+00 1.950000000000e+01 2.421707827445e-08 -6.057761413792e-10 0.000000000000e+00
9.890000000000e+02 0.000000000000e+00 2.050000000000e+01 5.165987003225e-08 -6.889052317520e-10 0.000000000000e+00
9.900000000000e+02 0.000000000000e+00 2.050000000000e+01 5.170024781084e-08 -6.351217737152e-10 0.000000000000e+00
9.890000000000e+02 0.000000000000e+00 2.150000000000e+01 2.540541317240e-08 -7.219241350985e-10 0.000000000000e+00
9.900000000000e+02 0.000000000000e+00 2.150000000000e+01 2.542641958319e-08 -6.664734727960e-10 0.000000000000e+00
9.890000000000e+02 0.000000000000e+00 2.250000000000e+01 3.645942732846e-09 -7.356296163544e-10 0.000000000000e+00
9.900000000000e+02 0.000000000000e+00 2.250000000000e+01 3.649506493158e-09 -6.795981363950e-10 0.000000000000e+00
9.890000000000e+02 0.000000000000e+00 2.350000000000e+01 1.035837847571e-07 -8.187724004829e-10 0.000000000000e+00
9.900000000000e+02 0.000000000000e+00 2.350000000000e+01 1.037432530597e-07 -7.620424469056e-10 0.000000000000e+00
9.890000000000e+02 0.000000000000e+00 2.450000000000e+01 1.303811211953e-08 -9.106258253282e-10 0.000000000000e+00
9.900000000000e+02 0.000000000000e+00 2.450000000000e+01 1.305886092328e-08 -8.532749663984e-10 0.000000000000e+00
9.890000000000e+02 0.000000000000e+00 2.550000000000e+01 9.172507798286e-07 -1.745300067801e-09 0.000000000000e+00
9.900000000000e+02 0.000000000000e+00 2.550000000000e+01 9.189133300617e-07 -1.697249607040e-09 0.000000000000e+00
9.890000000000e+02 0.000000000000e+00 2.650000000000e+01 5.688503554832e-07 -3.080714529371e-09 0.000000000000e+00
9.900000000000e+02 0.000000000000e+00 2.650000000000e+01 5.698834532100e-07 -3.047973677627e-09 0.000000000000e+00
9.890000000000e+02 0.000000000000e+00 2.750000000000e+01 1.174472630232e-06 -4.650250121580e-09 0.000000000000e+00
9.900000000000e+02 0.000000000000e+00 2.750000000000e+01 1.176610695999e-06 -4.636506429640e-09 0.000000000000e+00
9.890000000000e+02 0.000000000000e+00 2.850000000000e+01 3.032542931691e-08 -5.735383089958e-09 0.000000000000e+00
9.900000000000e+02 0.000000000000e+00 2.850000000000e+01 3.038067110779e-08 -5.734945234233e-09 0.000000000000e+00
9.890000000000e+02 0.000000000000e+00 2.950000000000e+01 3.825246777216e-09 -5.766160761741e-09 0.000000000000e+00
9.900000000000e+02 0.000000000000e+00 2.950000000000e+01 3.832223478739e-09 -5.766114587108e-09 0.000000000000e+00
