VARIABLES = "Time","Value"
ZONE T=obs_00000
0.000000000000e+00 0.000000000000e+00
1.797693134862e+308 2.885796467431e-09
