VARIABLES = "X","Y","Z",VELOCITY1_X,VELOCITY1_Y,VELOCITY1_Z
ZONE T="0.000000000000e+00s", 
7.490000000000e+02 0.000000000000e+00 5.000000000000e-01 0.000000000000e+00 0.000000000000e+00 0.000000000000e+00
7.500000000000e+02 0.000000000000e+00 5.000000000000e-01 0.000000000000e+00 0.000000000000e+00 0.000000000000e+00
7.490000000000e+02 0.000000000000e+00 1.500000000000e+00 0.000000000000e+00 0.000000000000e+00 0.000000000000e+00
7.500000000000e+02 0.000000000000e+00 1.500000000000e+00 0.000000000000e+00 0.000000000000e+00 0.000000000000e+00
7.490000000000e+02 0.000000000000e+00 2.500000000000e+00 0.000000000000e+00 0.000000000000e+00 0.000000000000e+00
7.500000000000e+02 0.000000000000e+00 2.500000000000e+00 0.000000000000e+00 0.000000000000e+00 0.000000000000e+00
7.490000000000e+02 0.000000000000e+00 3.500000000000e+00 0.000000000000e+00 0.000000000000e+00 0.000000000000e+00
7.500000000000e+02 0.000000000000e+00 3.500000000000e+00 0.000000000000e+00 0.000000000000e+00 0.000000000000e+00
7.490000000000e+02 0.000000000000e+00 4.500000000000e+00 0.000000000000e+00 0.000000000000e+00 0.000000000000e+00
7.500000000000e+02 0.000000000000e+00 4.500000000000e+00 0.000000000000e+00 0.000000000000e+00 0.000000000000e+00
7.490000000000e+02 0.000000000000e+00 5.500000000000e+00 0.000000000000e+00 0.000000000000e+00 0.000000000000e+00
7.500000000000e+02 0.000000000000e+00 5.500000000000e+00 0.000000000000e+00 0.000000000000e+00 0.000000000000e+00
7.490000000000e+02 0.000000000000e+00 6.500000000000e+00 0.000000000000e+00 0.000000000000e+00 0.000000000000e+00
7.500000000000e+02 0.000000000000e+00 6.500000000000e+00 0.000000000000e+00 0.000000000000e+00 0.000000000000e+00
7.490000000000e+02 0.000000000000e+00 7.500000000000e+00 0.000000000000e+00 0.000000000000e+00 0.000000000000e+00
7.500000000000e+02 0.000000000000e+00 7.500000000000e+00 0.000000000000e+00 0.000000000000e+00 0.000000000000e+00
7.490000000000e+02 0.000000000000e+00 8.500000000000e+00 0.000000000000e+00 0.000000000000e+00 0.000000000000e+00
7.500000000000e+02 0.000000000000e+00 8.500000000000e+00 0.000000000000e+00 0.000000000000e+00 0.000000000000e+00
7.490000000000e+02 0.000000000000e+00 9.500000000000e+00 0.000000000000e+00 0.000000000000e+00 0.000000000000e+00
7.500000000000e+02 0.000000000000e+00 9.500000000000e+00 0.000000000000e+00 0.000000000000e+00 0.000000000000e+00
7.490000000000e+02 0.000000000000e+00 1.050000000000e+01 0.000000000000e+00 0.000000000000e+00 0.000000000000e+00
7.500000000000e+02 0.000000000000e+00 1.050000000000e+01 0.000000000000e+00 0.000000000000e+00 0.000000000000e+00
7.490000000000e+02 0.000000000000e+00 1.150000000000e+01 0.000000000000e+00 0.000000000000e+00 0.000000000000e+00
7.500000000000e+02 0.000000000000e+00 1.150000000000e+01 0.000000000000e+00 0.000000000000e+00 0.000000000000e+00
7.490000000000e+02 0.000000000000e+00 1.250000000000e+01 0.000000000000e+00 0.000000000000e+00 0.000000000000e+00
7.500000000000e+02 0.000000000000e+00 1.250000000000e+01 0.000000000000e+00 0.000000000000e+00 0.000000000000e+00
7.490000000000e+02 0.000000000000e+00 1.350000000000e+01 0.000000000000e+00 0.000000000000e+00 0.000000000000e+00
7.500000000000e+02 0.000000000000e+00 1.350000000000e+01 0.000000000000e+00 0.000000000000e+00 0.000000000000e+00
7.490000000000e+02 0.000000000000e+00 1.450000000000e+01 0.000000000000e+00 0.000000000000e+00 0.000000000000e+00
7.500000000000e+02 0.000000000000e+00 1.450000000000e+01 0.000000000000e+00 0.000000000000e+00 0.000000000000e+00
7.490000000000e+02 0.000000000000e+00 1.550000000000e+01 0.000000000000e+00 0.000000000000e+00 0.000000000000e+00
7.500000000000e+02 0.000000000000e+00 1.550000000000e+01 0.000000000000e+00 0.000000000000e+00 0.000000000000e+00
7.490000000000e+02 0.000000000000e+00 1.650000000000e+01 0.000000000000e+00 0.000000000000e+00 0.000000000000e+00
7.500000000000e+02 0.000000000000e+00 1.650000000000e+01 0.000000000000e+00 0.000000000000e+00 0.000000000000e+00
7.490000000000e+02 0.000000000000e+00 1.750000000000e+01 0.000000000000e+00 0.000000000000e+00 0.000000000000e+00
7.500000000000e+02 0.000000000000e+00 1.750000000000e+01 0.000000000000e+00 0.000000000000e+00 0.000000000000e+00
7.490000000000e+02 0.000000000000e+00 1.850000000000e+01 0.000000000000e+00 0.000000000000e+00 0.000000000000e+00
7.500000000000e+02 0.000000000000e+00 1.850000000000e+01 0.000000000000e+00 0.000000000000e+00 0.000000000000e+00
7.490000000000e+02 0.000000000000e+00 1.950000000000e+01 0.000000000000e+00 0.000000000000e+00 0.000000000000e+00
7.500000000000e+02 0.000000000000e+00 1.950000000000e+01 0.000000000000e+00 0.000000000000e+00 0.000000000000e+00
7.490000000000e+02 0.000000000000e+00 2.050000000000e+01 0.000000000000e+00 0.000000000000e+00 0.000000000000e+00
7.500000000000e+02 0.000000000000e+00 2.050000000000e+01 0.000000000000e+00 0.000000000000e+00 0.000000000000e+00
7.490000000000e+02 0.000000000000e+00 2.150000000000e+01 0.000000000000e+00 0.000000000000e+00 0.000000000000e+00
7.500000000000e+02 0.000000000000e+00 2.150000000000e+01 0.000000000000e+00 0.000000000000e+00 0.000000000000e+00
7.490000000000e+02 0.000000000000e+00 2.250000000000e+01 0.000000000000e+00 0.000000000000e+00 0.000000000000e+00
7.500000000000e+02 0.000000000000e+00 2.250000000000e+01 0.000000000000e+00 0.000000000000e+00 0.000000000000e+00
7.490000000000e+02 0.000000000000e+00 2.350000000000e+01 0.000000000000e+00 0.000000000000e+00 0.000000000000e+00
7.500000000000e+02 0.000000000000e+00 2.350000000000e+01 0.000000000000e+00 0.000000000000e+00 0.000000000000e+00
7.490000000000e+02 0.000000000000e+00 2.450000000000e+01 0.000000000000e+00 0.000000000000e+00 0.000000000000e+00
7.500000000000e+02 0.000000000000e+00 2.450000000000e+01 0.000000000000e+00 0.000000000000e+00 0.000000000000e+00
7.490000000000e+02 0.000000000000e+00 2.550000000000e+01 0.000000000000e+00 0.000000000000e+00 0.000000000000e+00
7.500000000000e+02 0.000000000000e+00 2.550000000000e+01 0.000000000000e+00 0.000000000000e+00 0.000000000000e+00
7.490000000000e+02 0.000000000000e+00 2.650000000000e+01 0.000000000000e+00 0.000000000000e+00 0.000000000000e+00
7.500000000000e+02 0.000000000000e+00 2.650000000000e+01 0.000000000000e+00 0.000000000000e+00 0.000000000000e+00
7.490000000000e+02 0.000000000000e+00 2.750000000000e+01 0.000000000000e+00 0.000000000000e+00 0.000000000000e+00
7.500000000000e+02 0.000000000000e+00 2.750000000000e+01 0.000000000000e+00 0.000000000000e+00 0.000000000000e+00
7.490000000000e+02 0.000000000000e+00 2.850000000000e+01 0.000000000000e+00 0.000000000000e+00 0.000000000000e+00
7.500000000000e+02 0.000000000000e+00 2.850000000000e+01 0.000000000000e+00 0.000000000000e+00 0.000000000000e+00
7.490000000000e+02 0.000000000000e+00 2.950000000000e+01 0.000000000000e+00 0.000000000000e+00 0.000000000000e+00
7.500000000000e+02 0.000000000000e+00 2.950000000000e+01 0.000000000000e+00 0.000000000000e+00 0.000000000000e+00
VARIABLES = "X","Y","Z",VELOCITY1_X,VELOCITY1_Y,VELOCITY1_Z
ZONE T="1.797693134862e+308s", 
7.490000000000e+02 0.000000000000e+00 5.000000000000e-01 1.113590472940e-09 -6.927168059155e-13 0.000000000000e+00
7.500000000000e+02 0.000000000000e+00 5.000000000000e-01 1.114974783003e-09 -6.921083593898e-13 0.000000000000e+00
7.490000000000e+02 0.000000000000e+00 1.500000000000e+00 5.632150186917e-08 -3.642088708398e-11 0.000000000000e+00
7.500000000000e+02 0.000000000000e+00 1.500000000000e+00 5.639151571040e-08 -3.638889890674e-11 0.000000000000e+00
7.490000000000e+02 0.000000000000e+00 2.500000000000e+00 2.401942604596e-09 -7.295480128586e-11 0.000000000000e+00
7.500000000000e+02 0.000000000000e+00 2.500000000000e+00 2.404928563303e-09 -7.289070361144e-11 0.000000000000e+00
7.490000000000e+02 0.000000000000e+00 3.500000000000e+00 9.128495028260e-09 -8.012906620551e-11 0.000000000000e+00
7.500000000000e+02 0.000000000000e+00 3.500000000000e+00 9.139845150454e-09 -8.005868402388e-11 0.000000000000e+00
7.490000000000e+02 0.000000000000e+00 4.500000000000e+00 5.008222142569e-08 -1.169720033473e-10 0.000000000000e+00
7.500000000000e+02 0.000000000000e+00 4.500000000000e+00 5.014449559978e-08 -1.168693798091e-10 0.000000000000e+00
7.490000000000e+02 0.000000000000e+00 5.500000000000e+00 1.195470729625e-07 -2.225252515991e-10 0.000000000000e+00
7.500000000000e+02 0.000000000000e+00 5.500000000000e+00 1.196957246624e-07 -2.223302725246e-10 0.000000000000e+00
7.490000000000e+02 0.000000000000e+00 6.500000000000e+00 1.397434854248e-08 -3.056162645284e-10 0.000000000000e+00
7.500000000000e+02 0.000000000000e+00 6.500000000000e+00 1.399172552137e-08 -3.053485855571e-10 0.000000000000e+00
7.490000000000e+02 0.000000000000e+00 7.500000000000e+00 1.957352892507e-08 -3.264948775817e-10 0.000000000000e+00
7.500000000000e+02 0.000000000000e+00 7.500000000000e+00 1.959787184136e-08 -3.262089748343e-10 0.000000000000e+00
7.490000000000e+02 0.000000000000e+00 8.500000000000e+00 3.264431955538e-09 -3.407102125232e-10 0.000000000000e+00
7.500000000000e+02 0.000000000000e+00 8.500000000000e+00 3.268492525177e-09 -3.404119195080e-10 0.000000000000e+00
7.490000000000e+02 0.000000000000e+00 9.500000000000e+00 3.783927495516e-08 -3.663105588339e-10 0.000000000000e+00
7.500000000000e+02 0.000000000000e+00 9.500000000000e+00 3.788637156599e-08 -3.659901814220e-10 0.000000000000e+00
7.490000000000e+02 0.000000000000e+00 1.050000000000e+01 1.265553357476e-09 -3.906700281426e-10 0.000000000000e+00
7.500000000000e+02 0.000000000000e+00 1.050000000000e+01 1.267128975353e-09 -3.903286514092e-10 0.000000000000e+00
7.490000000000e+02 0.000000000000e+00 1.150000000000e+01 1.113459052535e-06 -1.086371892320e-09 0.000000000000e+00
7.500000000000e+02 0.000000000000e+00 1.150000000000e+01 1.114847802437e-06 -1.085448889024e-09 0.000000000000e+00
7.490000000000e+02 0.000000000000e+00 1.250000000000e+01 1.216968219756e-08 -1.788965824002e-09 0.000000000000e+00
7.500000000000e+02 0.000000000000e+00 1.250000000000e+01 1.218486237527e-08 -1.787455551488e-09 0.000000000000e+00
7.490000000000e+02 0.000000000000e+00 1.350000000000e+01 4.744887083478e-08 -1.826209840205e-09 0.000000000000e+00
7.500000000000e+02 0.000000000000e+00 1.350000000000e+01 4.750810787968e-08 -1.824668888718e-09 0.000000000000e+00
7.490000000000e+02 0.000000000000e+00 1.450000000000e+01 2.636947031142e-07 -2.020626027603e-09 0.000000000000e+00
7.500000000000e+02 0.000000000000e+00 1.450000000000e+01 2.640239827683e-07 -2.018925539709e-09 0.000000000000e+00
7.490000000000e+02 0.000000000000e+00 1.550000000000e+01 6.677328516661e-10 -2.185834405112e-09 0.000000000000e+00
7.500000000000e+02 0.000000000000e+00 1.550000000000e+01 6.685686290669e-10 -2.183998328650e-09 0.000000000000e+00
7.490000000000e+02 0.000000000000e+00 1.650000000000e+01 1.518300939961e-10 -2.186357845507e-09 0.000000000000e+00
7.500000000000e+02 0.000000000000e+00 1.650000000000e+01 1.520255139381e-10 -2.184521474040e-09 0.000000000000e+00
7.490000000000e+02 0.000000000000e+00 1.750000000000e+01 4.751079483748e-07 -2.515559688152e-09 0.000000000000e+00
7.500000000000e+02 0.000000000000e+00 1.750000000000e+01 4.757663965453e-07 -2.513870846920e-09 0.000000000000e+00
7.490000000000e+02 0.000000000000e+00 1.850000000000e+01 1.241166081627e-08 -2.853276458286e-09 0.000000000000e+00
7.500000000000e+02 0.000000000000e+00 1.850000000000e+01 1.242886399772e-08 -2.851739224398e-09 0.000000000000e+00
7.490000000000e+02 0.000000000000e+00 1.950000000000e+01 1.770830640609e-08 -2.874158452395e-09 0.000000000000e+00
7.500000000000e+02 0.000000000000e+00 1.950000000000e+01 1.773287046515e-08 -2.872630800014e-09 0.000000000000e+00
7.490000000000e+02 0.000000000000e+00 2.050000000000e+01 3.772899042127e-08 -2.912613619214e-09 0.000000000000e+00
7.500000000000e+02 0.000000000000e+00 2.050000000000e+01 3.778135426593e-08 -2.911103862416e-09 0.000000000000e+00
7.490000000000e+02 0.000000000000e+00 2.150000000000e+01 1.853368956968e-08 -2.951652380377e-09 0.000000000000e+00
7.500000000000e+02 0.000000000000e+00 2.150000000000e+01 1.855941997056e-08 -2.950160859737e-09 0.000000000000e+00
7.490000000000e+02 0.000000000000e+00 2.250000000000e+01 2.650441569901e-09 -2.966359612706e-09 0.000000000000e+00
7.500000000000e+02 0.000000000000e+00 2.250000000000e+01 2.654124464314e-09 -2.964875071607e-09 0.000000000000e+00
7.490000000000e+02 0.000000000000e+00 2.350000000000e+01 7.432516921682e-08 -3.019992081838e-09 0.000000000000e+00
7.500000000000e+02 0.000000000000e+00 2.350000000000e+01 7.442878778547e-08 -3.018535680390e-09 0.000000000000e+00
7.490000000000e+02 0.000000000000e+00 2.450000000000e+01 9.346523806773e-09 -3.078301235174e-09 0.000000000000e+00
7.500000000000e+02 0.000000000000e+00 2.450000000000e+01 9.359557029936e-09 -3.076874516788e-09 0.000000000000e+00
7.490000000000e+02 0.000000000000e+00 2.550000000000e+01 6.550872616755e-07 -3.541758054120e-09 0.000000000000e+00
7.500000000000e+02 0.000000000000e+00 2.550000000000e+01 6.560015572468e-07 -3.540579090882e-09 0.000000000000e+00
7.490000000000e+02 0.000000000000e+00 2.650000000000e+01 4.062440963212e-07 -4.282104339550e-09 0.000000000000e+00
7.500000000000e+02 0.000000000000e+00 2.650000000000e+01 4.068110933858e-07 -4.281315514534e-09 0.000000000000e+00
7.490000000000e+02 0.000000000000e+00 2.750000000000e+01 8.387067934513e-07 -5.150522605698e-09 0.000000000000e+00
7.500000000000e+02 0.000000000000e+00 2.750000000000e+01 8.398773960162e-07 -5.150199196093e-09 0.000000000000e+00
7.490000000000e+02 0.000000000000e+00 2.850000000000e+01 2.165555068838e-08 -5.750693263088e-09 0.000000000000e+00
7.500000000000e+02 0.000000000000e+00 2.850000000000e+01 2.168577600863e-08 -5.750683231048e-09 0.000000000000e+00
7.490000000000e+02 0.000000000000e+00 2.950000000000e+01 2.731592327454e-09 -5.767704896220e-09 0.000000000000e+00
7.500000000000e+02 0.000000000000e+00 2.950000000000e+01 2.735404904591e-09 -5.767703872420e-09 0.000000000000e+00
