 TITLE = "Profiles along polylines"
 VARIABLES = "DIST" "HEAD" "VELOCITY_X1" "VELOCITY_Y1" "VELOCITY_Z1" 
 ZONE T="TIME=0.000000000000e+00"
0.000000000000e+00 3.000000000000e+01 0.000000000000e+00 0.000000000000e+00 0.000000000000e+00 
1.000000000000e+00 3.000000000000e+01 0.000000000000e+00 0.000000000000e+00 0.000000000000e+00 
2.000000000000e+00 3.000000000000e+01 0.000000000000e+00 0.000000000000e+00 0.000000000000e+00 
3.000000000000e+00 3.000000000000e+01 0.000000000000e+00 0.000000000000e+00 0.000000000000e+00 
4.000000000000e+00 3.000000000000e+01 0.000000000000e+00 0.000000000000e+00 0.000000000000e+00 
5.000000000000e+00 3.000000000000e+01 0.000000000000e+00 0.000000000000e+00 0.000000000000e+00 
6.000000000000e+00 3.000000000000e+01 0.000000000000e+00 0.000000000000e+00 0.000000000000e+00 
7.000000000000e+00 3.000000000000e+01 0.000000000000e+00 0.000000000000e+00 0.000000000000e+00 
8.000000000000e+00 3.000000000000e+01 0.000000000000e+00 0.000000000000e+00 0.000000000000e+00 
9.000000000000e+00 3.000000000000e+01 0.000000000000e+00 0.000000000000e+00 0.000000000000e+00 
1.000000000000e+01 3.000000000000e+01 0.000000000000e+00 0.000000000000e+00 0.000000000000e+00 
1.100000000000e+01 3.000000000000e+01 0.000000000000e+00 0.000000000000e+00 0.000000000000e+00 
1.200000000000e+01 3.000000000000e+01 0.000000000000e+00 0.000000000000e+00 0.000000000000e+00 
1.300000000000e+01 3.000000000000e+01 0.000000000000e+00 0.000000000000e+00 0.000000000000e+00 
1.400000000000e+01 3.000000000000e+01 0.000000000000e+00 0.000000000000e+00 0.000000000000e+00 
1.500000000000e+01 3.000000000000e+01 0.000000000000e+00 0.000000000000e+00 0.000000000000e+00 
1.600000000000e+01 3.000000000000e+01 0.000000000000e+00 0.000000000000e+00 0.000000000000e+00 
1.700000000000e+01 3.000000000000e+01 0.000000000000e+00 0.000000000000e+00 0.000000000000e+00 
1.800000000000e+01 3.000000000000e+01 0.000000000000e+00 0.000000000000e+00 0.000000000000e+00 
1.900000000000e+01 3.000000000000e+01 0.000000000000e+00 0.000000000000e+00 0.000000000000e+00 
2.000000000000e+01 3.000000000000e+01 0.000000000000e+00 0.000000000000e+00 0.000000000000e+00 
2.100000000000e+01 3.000000000000e+01 0.000000000000e+00 0.000000000000e+00 0.000000000000e+00 
2.200000000000e+01 3.000000000000e+01 0.000000000000e+00 0.000000000000e+00 0.000000000000e+00 
2.300000000000e+01 3.000000000000e+01 0.000000000000e+00 0.000000000000e+00 0.000000000000e+00 
2.400000000000e+01 3.000000000000e+01 0.000000000000e+00 0.000000000000e+00 0.000000000000e+00 
2.500000000000e+01 3.000000000000e+01 0.000000000000e+00 0.000000000000e+00 0.000000000000e+00 
2.600000000000e+01 3.000000000000e+01 0.000000000000e+00 0.000000000000e+00 0.000000000000e+00 
2.700000000000e+01 3.000000000000e+01 0.000000000000e+00 0.000000000000e+00 0.000000000000e+00 
2.800000000000e+01 3.000000000000e+01 0.000000000000e+00 0.000000000000e+00 0.000000000000e+00 
2.900000000000e+01 3.000000000000e+01 0.000000000000e+00 0.000000000000e+00 0.000000000000e+00 
3.000000000000e+01 3.000000000000e+01 0.000000000000e+00 0.000000000000e+00 0.000000000000e+00 
 TITLE = "Profiles along polylines"
 VARIABLES = "DIST" "HEAD" "VELOCITY_X1" "VELOCITY_Y1" "VELOCITY_Z1" 
 ZONE T="TIME=1.797693134862e+308"
0.000000000000e+00 3.009807952506e+01 1.296871503564e-09 -4.687634385675e-13 0.000000000000e+00 
1.000000000000e+00 3.009807987047e+01 3.344410071345e-08 -1.255774723633e-11 0.000000000000e+00 
2.000000000000e+00 3.009808022956e+01 3.419437576870e-08 -3.700787097369e-11 0.000000000000e+00 
3.000000000000e+00 3.009809709532e+01 6.714709918334e-09 -5.179979830448e-11 0.000000000000e+00 
4.000000000000e+00 3.009810197026e+01 3.448187655947e-08 -6.671857559830e-11 0.000000000000e+00 
5.000000000000e+00 3.009810326806e+01 9.878569256801e-08 -1.149872375272e-10 0.000000000000e+00 
6.000000000000e+00 3.009810430296e+01 7.775828396316e-08 -1.789355624815e-10 0.000000000000e+00 
7.000000000000e+00 3.009811646441e+01 1.953841188246e-08 -2.141881338787e-10 0.000000000000e+00 
8.000000000000e+00 3.009812574120e+01 1.330157656834e-08 -2.261003096322e-10 0.000000000000e+00 
9.000000000000e+00 3.009818379312e+01 2.394696385495e-08 -2.396611884609e-10 0.000000000000e+00 
1.000000000000e+01 3.009818918057e+01 2.278304616432e-08 -2.567081036543e-10 0.000000000000e+00 
1.100000000000e+01 3.009836105091e+01 6.500046766748e-07 -5.056592623403e-10 0.000000000000e+00 
1.200000000000e+01 3.009836160114e+01 6.563649487794e-07 -9.893115328206e-10 0.000000000000e+00 
1.300000000000e+01 3.009844473099e+01 3.477853018918e-08 -1.245289548144e-09 0.000000000000e+00 
1.400000000000e+01 3.009846650319e+01 1.815217253323e-07 -1.326034448772e-09 0.000000000000e+00 
1.500000000000e+01 3.009847084306e+01 1.542328633531e-07 -1.451429430555e-09 0.000000000000e+00 
1.600000000000e+01 3.010032697430e+01 4.831489617129e-10 -1.509250303118e-09 0.000000000000e+00 
1.700000000000e+01 3.010852334394e+01 2.902131310458e-07 -1.700574080173e-09 0.000000000000e+00 
1.800000000000e+01 3.010852666172e+01 2.977026050164e-07 -2.087766315426e-09 0.000000000000e+00 
1.900000000000e+01 3.010867999368e+01 1.840038085250e-08 -2.296008340220e-09 0.000000000000e+00 
2.000000000000e+01 3.010878862125e+01 3.387521147117e-08 -2.330634277921e-09 0.000000000000e+00 
2.100000000000e+01 3.010884060261e+01 3.438379548005e-08 -2.375919862238e-09 0.000000000000e+00 
2.200000000000e+01 3.010894847872e+01 1.294991106725e-08 -2.407364932895e-09 0.000000000000e+00 
2.300000000000e+01 3.010970834484e+01 4.713502159097e-08 -2.447915676998e-09 0.000000000000e+00 
2.400000000000e+01 3.010973617187e+01 5.123830822737e-08 -2.514581092572e-09 0.000000000000e+00 
2.500000000000e+01 3.010996366386e+01 4.070685482740e-07 -2.826576402603e-09 0.000000000000e+00 
2.600000000000e+01 3.010996761617e+01 6.502328503043e-07 -3.546754124213e-09 0.000000000000e+00 
2.700000000000e+01 3.010997580840e+01 7.627330645062e-07 -4.509244050338e-09 0.000000000000e+00 
2.800000000000e+01 3.010998081000e+01 5.271111306166e-07 -5.387895800768e-09 0.000000000000e+00 
2.900000000000e+01 3.011020218231e+01 1.494109240462e-08 -5.757151971848e-09 0.000000000000e+00 
3.000000000000e+01 3.011196339761e+01 3.347093078937e-09 -5.767330196872e-09 0.000000000000e+00 
