 TITLE = "Profiles along polylines"
 VARIABLES = "DIST" "HEAD" "VELOCITY_X1" "VELOCITY_Y1" "VELOCITY_Z1" 
 ZONE T="TIME=0.000000000000e+00"
0.000000000000e+00 3.000000000000e+01 0.000000000000e+00 0.000000000000e+00 0.000000000000e+00 
1.000000000000e+00 3.000000000000e+01 0.000000000000e+00 0.000000000000e+00 0.000000000000e+00 
2.000000000000e+00 3.000000000000e+01 0.000000000000e+00 0.000000000000e+00 0.000000000000e+00 
3.000000000000e+00 3.000000000000e+01 0.000000000000e+00 0.000000000000e+00 0.000000000000e+00 
4.000000000000e+00 3.000000000000e+01 0.000000000000e+00 0.000000000000e+00 0.000000000000e+00 
5.000000000000e+00 3.000000000000e+01 0.000000000000e+00 0.000000000000e+00 0.000000000000e+00 
6.000000000000e+00 3.000000000000e+01 0.000000000000e+00 0.000000000000e+00 0.000000000000e+00 
7.000000000000e+00 3.000000000000e+01 0.000000000000e+00 0.000000000000e+00 0.000000000000e+00 
8.000000000000e+00 3.000000000000e+01 0.000000000000e+00 0.000000000000e+00 0.000000000000e+00 
9.000000000000e+00 3.000000000000e+01 0.000000000000e+00 0.000000000000e+00 0.000000000000e+00 
1.000000000000e+01 3.000000000000e+01 0.000000000000e+00 0.000000000000e+00 0.000000000000e+00 
1.100000000000e+01 3.000000000000e+01 0.000000000000e+00 0.000000000000e+00 0.000000000000e+00 
1.200000000000e+01 3.000000000000e+01 0.000000000000e+00 0.000000000000e+00 0.000000000000e+00 
1.300000000000e+01 3.000000000000e+01 0.000000000000e+00 0.000000000000e+00 0.000000000000e+00 
1.400000000000e+01 3.000000000000e+01 0.000000000000e+00 0.000000000000e+00 0.000000000000e+00 
1.500000000000e+01 3.000000000000e+01 0.000000000000e+00 0.000000000000e+00 0.000000000000e+00 
1.600000000000e+01 3.000000000000e+01 0.000000000000e+00 0.000000000000e+00 0.000000000000e+00 
1.700000000000e+01 3.000000000000e+01 0.000000000000e+00 0.000000000000e+00 0.000000000000e+00 
1.800000000000e+01 3.000000000000e+01 0.000000000000e+00 0.000000000000e+00 0.000000000000e+00 
1.900000000000e+01 3.000000000000e+01 0.000000000000e+00 0.000000000000e+00 0.000000000000e+00 
2.000000000000e+01 3.000000000000e+01 0.000000000000e+00 0.000000000000e+00 0.000000000000e+00 
2.100000000000e+01 3.000000000000e+01 0.000000000000e+00 0.000000000000e+00 0.000000000000e+00 
2.200000000000e+01 3.000000000000e+01 0.000000000000e+00 0.000000000000e+00 0.000000000000e+00 
2.300000000000e+01 3.000000000000e+01 0.000000000000e+00 0.000000000000e+00 0.000000000000e+00 
2.400000000000e+01 3.000000000000e+01 0.000000000000e+00 0.000000000000e+00 0.000000000000e+00 
2.500000000000e+01 3.000000000000e+01 0.000000000000e+00 0.000000000000e+00 0.000000000000e+00 
2.600000000000e+01 3.000000000000e+01 0.000000000000e+00 0.000000000000e+00 0.000000000000e+00 
2.700000000000e+01 3.000000000000e+01 0.000000000000e+00 0.000000000000e+00 0.000000000000e+00 
2.800000000000e+01 3.000000000000e+01 0.000000000000e+00 0.000000000000e+00 0.000000000000e+00 
2.900000000000e+01 3.000000000000e+01 0.000000000000e+00 0.000000000000e+00 0.000000000000e+00 
3.000000000000e+01 3.000000000000e+01 0.000000000000e+00 0.000000000000e+00 0.000000000000e+00 
 TITLE = "Profiles along polylines"
 VARIABLES = "DIST" "HEAD" "VELOCITY_X1" "VELOCITY_Y1" "VELOCITY_Z1" 
 ZONE T="TIME=1.797693134862e+308"
0.000000000000e+00 3.054211877872e+01 7.502668645980e-13 -7.502624569452e-13 0.000000000000e+00 
1.000000000000e+00 3.054211933156e+01 1.934788448442e-11 -2.009988631738e-11 0.000000000000e+00 
2.000000000000e+00 3.054211990631e+01 1.978486993145e-11 -5.922365784085e-11 0.000000000000e+00 
3.000000000000e+00 3.054214689405e+01 3.884327870900e-12 -8.288147489566e-11 0.000000000000e+00 
4.000000000000e+00 3.054215469362e+01 1.994583937406e-11 -1.067100677213e-10 0.000000000000e+00 
5.000000000000e+00 3.054215676885e+01 5.714283862966e-11 -1.837926803519e-10 0.000000000000e+00 
6.000000000000e+00 3.054215842265e+01 4.498414927984e-11 -2.858912153730e-10 0.000000000000e+00 
7.000000000000e+00 3.054217785085e+01 1.130173858362e-11 -3.421512379178e-10 0.000000000000e+00 
8.000000000000e+00 3.054219266912e+01 7.693949118409e-12 -3.611416202569e-10 0.000000000000e+00 
9.000000000000e+00 3.054228538847e+01 1.384498909545e-11 -3.826788947372e-10 0.000000000000e+00 
1.000000000000e+01 3.054229398873e+01 1.317396502097e-11 -4.096903050805e-10 0.000000000000e+00 
1.100000000000e+01 3.054256821693e+01 3.754142489340e-10 -7.983349130058e-10 0.000000000000e+00 
1.200000000000e+01 3.054256908236e+01 3.791854681696e-10 -1.552587245209e-09 0.000000000000e+00 
1.300000000000e+01 3.054269936746e+01 2.007719485203e-11 -1.951430176732e-09 0.000000000000e+00 
1.400000000000e+01 3.054273348132e+01 1.047703981093e-10 -2.076270500254e-09 0.000000000000e+00 
1.500000000000e+01 3.054274027235e+01 8.903135425465e-11 -2.269994546808e-09 0.000000000000e+00 
1.600000000000e+01 3.054564179137e+01 2.757432891130e-13 -2.359223585685e-09 0.000000000000e+00 
1.700000000000e+01 3.055845389538e+01 1.576735064304e-10 -2.517193437713e-09 0.000000000000e+00 
1.800000000000e+01 3.055845858678e+01 1.617724185453e-10 -2.836548141950e-09 0.000000000000e+00 
1.900000000000e+01 3.055865987968e+01 9.993181336751e-12 -3.008197312718e-09 0.000000000000e+00 
2.000000000000e+01 3.055880192189e+01 1.838964115091e-11 -3.036574116218e-09 0.000000000000e+00 
2.100000000000e+01 3.055886940797e+01 1.866393772674e-11 -3.073619040567e-09 0.000000000000e+00 
2.200000000000e+01 3.055900847343e+01 7.027431373088e-12 -3.099299583555e-09 0.000000000000e+00 
2.300000000000e+01 3.055998546241e+01 2.551676240253e-11 -3.131842910330e-09 0.000000000000e+00 
2.400000000000e+01 3.056002089202e+01 2.774151773406e-11 -3.185082305182e-09 0.000000000000e+00 
2.500000000000e+01 3.056030759129e+01 2.202010562046e-10 -3.433017335272e-09 0.000000000000e+00 
2.600000000000e+01 3.056031224318e+01 3.517789477462e-10 -4.004870127856e-09 0.000000000000e+00 
2.700000000000e+01 3.056032118867e+01 4.126262936441e-10 -4.769057012264e-09 0.000000000000e+00 
2.800000000000e+01 3.056032634223e+01 2.851882748091e-10 -5.466624179181e-09 0.000000000000e+00 
2.900000000000e+01 3.056054789435e+01 8.083986152087e-12 -5.759720843900e-09 0.000000000000e+00 
3.000000000000e+01 3.056230925307e+01 1.810837064479e-12 -5.767799841880e-09 0.000000000000e+00 
