 TITLE = "Profiles along polylines"
 VARIABLES = "DIST" "HEAD" "VELOCITY_X1" "VELOCITY_Y1" "VELOCITY_Z1" 
 ZONE T="TIME=0.000000000000e+00"
0.000000000000e+00 3.000000000000e+01 0.000000000000e+00 0.000000000000e+00 0.000000000000e+00 
1.000000000000e+00 3.000000000000e+01 0.000000000000e+00 0.000000000000e+00 0.000000000000e+00 
2.000000000000e+00 3.000000000000e+01 0.000000000000e+00 0.000000000000e+00 0.000000000000e+00 
3.000000000000e+00 3.000000000000e+01 0.000000000000e+00 0.000000000000e+00 0.000000000000e+00 
4.000000000000e+00 3.000000000000e+01 0.000000000000e+00 0.000000000000e+00 0.000000000000e+00 
5.000000000000e+00 3.000000000000e+01 0.000000000000e+00 0.000000000000e+00 0.000000000000e+00 
6.000000000000e+00 3.000000000000e+01 0.000000000000e+00 0.000000000000e+00 0.000000000000e+00 
7.000000000000e+00 3.000000000000e+01 0.000000000000e+00 0.000000000000e+00 0.000000000000e+00 
8.000000000000e+00 3.000000000000e+01 0.000000000000e+00 0.000000000000e+00 0.000000000000e+00 
9.000000000000e+00 3.000000000000e+01 0.000000000000e+00 0.000000000000e+00 0.000000000000e+00 
1.000000000000e+01 3.000000000000e+01 0.000000000000e+00 0.000000000000e+00 0.000000000000e+00 
1.100000000000e+01 3.000000000000e+01 0.000000000000e+00 0.000000000000e+00 0.000000000000e+00 
1.200000000000e+01 3.000000000000e+01 0.000000000000e+00 0.000000000000e+00 0.000000000000e+00 
1.300000000000e+01 3.000000000000e+01 0.000000000000e+00 0.000000000000e+00 0.000000000000e+00 
1.400000000000e+01 3.000000000000e+01 0.000000000000e+00 0.000000000000e+00 0.000000000000e+00 
1.500000000000e+01 3.000000000000e+01 0.000000000000e+00 0.000000000000e+00 0.000000000000e+00 
1.600000000000e+01 3.000000000000e+01 0.000000000000e+00 0.000000000000e+00 0.000000000000e+00 
1.700000000000e+01 3.000000000000e+01 0.000000000000e+00 0.000000000000e+00 0.000000000000e+00 
1.800000000000e+01 3.000000000000e+01 0.000000000000e+00 0.000000000000e+00 0.000000000000e+00 
1.900000000000e+01 3.000000000000e+01 0.000000000000e+00 0.000000000000e+00 0.000000000000e+00 
2.000000000000e+01 3.000000000000e+01 0.000000000000e+00 0.000000000000e+00 0.000000000000e+00 
2.100000000000e+01 3.000000000000e+01 0.000000000000e+00 0.000000000000e+00 0.000000000000e+00 
2.200000000000e+01 3.000000000000e+01 0.000000000000e+00 0.000000000000e+00 0.000000000000e+00 
2.300000000000e+01 3.000000000000e+01 0.000000000000e+00 0.000000000000e+00 0.000000000000e+00 
2.400000000000e+01 3.000000000000e+01 0.000000000000e+00 0.000000000000e+00 0.000000000000e+00 
2.500000000000e+01 3.000000000000e+01 0.000000000000e+00 0.000000000000e+00 0.000000000000e+00 
2.600000000000e+01 3.000000000000e+01 0.000000000000e+00 0.000000000000e+00 0.000000000000e+00 
2.700000000000e+01 3.000000000000e+01 0.000000000000e+00 0.000000000000e+00 0.000000000000e+00 
2.800000000000e+01 3.000000000000e+01 0.000000000000e+00 0.000000000000e+00 0.000000000000e+00 
2.900000000000e+01 3.000000000000e+01 0.000000000000e+00 0.000000000000e+00 0.000000000000e+00 
3.000000000000e+01 3.000000000000e+01 0.000000000000e+00 0.000000000000e+00 0.000000000000e+00 
 TITLE = "Profiles along polylines"
 VARIABLES = "DIST" "HEAD" "VELOCITY_X1" "VELOCITY_Y1" "VELOCITY_Z1" 
 ZONE T="TIME=1.797693134862e+308"
0.000000000000e+00 3.000994236895e+01 1.348878026691e-09 -6.035800680806e-14 0.000000000000e+00 
1.000000000000e+00 3.000994241342e+01 3.478533545835e-08 -1.617065640564e-12 0.000000000000e+00 
2.000000000000e+00 3.000994245966e+01 3.556577948671e-08 -4.765606080769e-12 0.000000000000e+00 
3.000000000000e+00 3.000994463153e+01 6.984749880053e-09 -6.671736813206e-12 0.000000000000e+00 
4.000000000000e+00 3.000994525953e+01 3.586970372231e-08 -8.602615731021e-12 0.000000000000e+00 
5.000000000000e+00 3.000994542697e+01 1.027624618456e-07 -1.485247653048e-11 0.000000000000e+00 
6.000000000000e+00 3.000994556072e+01 8.088909322722e-08 -2.313412279013e-11 0.000000000000e+00 
7.000000000000e+00 3.000994713343e+01 2.032666282619e-08 -2.770296747865e-11 0.000000000000e+00 
8.000000000000e+00 3.000994833346e+01 1.383902612345e-08 -2.925206403179e-11 0.000000000000e+00 
9.000000000000e+00 3.000995584504e+01 2.492372846154e-08 -3.103455785237e-11 0.000000000000e+00 
1.000000000000e+01 3.000995654318e+01 2.371315042578e-08 -3.328824230310e-11 0.000000000000e+00 
1.100000000000e+01 3.000997884434e+01 6.772837125842e-07 -6.759974554663e-11 0.000000000000e+00 
1.200000000000e+01 3.000997891867e+01 6.839135769815e-07 -1.343578398920e-10 0.000000000000e+00 
1.300000000000e+01 3.000999024510e+01 3.626005471727e-08 -1.697563344097e-10 0.000000000000e+00 
1.400000000000e+01 3.000999321453e+01 1.892842052834e-07 -1.813783805710e-10 0.000000000000e+00 
1.500000000000e+01 3.000999380970e+01 1.608334962967e-07 -1.994682600955e-10 0.000000000000e+00 
1.600000000000e+01 3.001024939030e+01 5.106604455914e-10 -2.078401243265e-10 0.000000000000e+00 
1.700000000000e+01 3.001137824633e+01 3.238112075969e-07 -3.039127548290e-10 0.000000000000e+00 
1.800000000000e+01 3.001137894776e+01 3.321814402793e-07 -4.986726456528e-10 0.000000000000e+00 
1.900000000000e+01 3.001141905663e+01 2.058400921002e-08 -6.046255326650e-10 0.000000000000e+00 
2.000000000000e+01 3.001144785107e+01 3.796464883677e-08 -6.266160288496e-10 0.000000000000e+00 
2.100000000000e+01 3.001146201986e+01 3.856903389349e-08 -6.571727489684e-10 0.000000000000e+00 
2.200000000000e+01 3.001149228380e+01 1.455360657865e-08 -6.795519591932e-10 0.000000000000e+00 
2.300000000000e+01 3.001170808949e+01 5.367763035105e-08 -7.274365187271e-10 0.000000000000e+00 
2.400000000000e+01 3.001171671552e+01 5.837835712667e-08 -8.143974943108e-10 0.000000000000e+00 
2.500000000000e+01 3.001179346547e+01 4.655885112514e-07 -1.281530746192e-09 0.000000000000e+00 
2.600000000000e+01 3.001179563399e+01 7.437444475117e-07 -2.377463951951e-09 0.000000000000e+00 
2.700000000000e+01 3.001180190072e+01 8.724684812180e-07 -3.845060998234e-09 0.000000000000e+00 
2.800000000000e+01 3.001180651380e+01 6.029536461561e-07 -5.186591806192e-09 0.000000000000e+00 
2.900000000000e+01 3.001202742494e+01 1.709109552580e-08 -5.750561026442e-09 0.000000000000e+00 
3.000000000000e+01 3.001378827091e+01 3.828779636685e-09 -5.766120820617e-09 0.000000000000e+00 
