VARIABLES = "X","Y","Z",VELOCITY1_X,VELOCITY1_Y,VELOCITY1_Z
ZONE T="0.000000000000e+00s", 
0.000000000000e+00 0.000000000000e+00 5.000000000000e-01 0.000000000000e+00 0.000000000000e+00 0.000000000000e+00
0.000000000000e+00 0.000000000000e+00 1.500000000000e+00 0.000000000000e+00 0.000000000000e+00 0.000000000000e+00
0.000000000000e+00 0.000000000000e+00 2.500000000000e+00 0.000000000000e+00 0.000000000000e+00 0.000000000000e+00
0.000000000000e+00 0.000000000000e+00 3.500000000000e+00 0.000000000000e+00 0.000000000000e+00 0.000000000000e+00
0.000000000000e+00 0.000000000000e+00 4.500000000000e+00 0.000000000000e+00 0.000000000000e+00 0.000000000000e+00
0.000000000000e+00 0.000000000000e+00 5.500000000000e+00 0.000000000000e+00 0.000000000000e+00 0.000000000000e+00
0.000000000000e+00 0.000000000000e+00 6.500000000000e+00 0.000000000000e+00 0.000000000000e+00 0.000000000000e+00
0.000000000000e+00 0.000000000000e+00 7.500000000000e+00 0.000000000000e+00 0.000000000000e+00 0.000000000000e+00
0.000000000000e+00 0.000000000000e+00 8.500000000000e+00 0.000000000000e+00 0.000000000000e+00 0.000000000000e+00
0.000000000000e+00 0.000000000000e+00 9.500000000000e+00 0.000000000000e+00 0.000000000000e+00 0.000000000000e+00
0.000000000000e+00 0.000000000000e+00 1.050000000000e+01 0.000000000000e+00 0.000000000000e+00 0.000000000000e+00
0.000000000000e+00 0.000000000000e+00 1.150000000000e+01 0.000000000000e+00 0.000000000000e+00 0.000000000000e+00
0.000000000000e+00 0.000000000000e+00 1.250000000000e+01 0.000000000000e+00 0.000000000000e+00 0.000000000000e+00
0.000000000000e+00 0.000000000000e+00 1.350000000000e+01 0.000000000000e+00 0.000000000000e+00 0.000000000000e+00
0.000000000000e+00 0.000000000000e+00 1.450000000000e+01 0.000000000000e+00 0.000000000000e+00 0.000000000000e+00
0.000000000000e+00 0.000000000000e+00 1.550000000000e+01 0.000000000000e+00 0.000000000000e+00 0.000000000000e+00
0.000000000000e+00 0.000000000000e+00 1.650000000000e+01 0.000000000000e+00 0.000000000000e+00 0.000000000000e+00
0.000000000000e+00 0.000000000000e+00 1.750000000000e+01 0.000000000000e+00 0.000000000000e+00 0.000000000000e+00
0.000000000000e+00 0.000000000000e+00 1.850000000000e+01 0.000000000000e+00 0.000000000000e+00 0.000000000000e+00
0.000000000000e+00 0.000000000000e+00 1.950000000000e+01 0.000000000000e+00 0.000000000000e+00 0.000000000000e+00
0.000000000000e+00 0.000000000000e+00 2.050000000000e+01 0.000000000000e+00 0.000000000000e+00 0.000000000000e+00
0.000000000000e+00 0.000000000000e+00 2.150000000000e+01 0.000000000000e+00 0.000000000000e+00 0.000000000000e+00
0.000000000000e+00 0.000000000000e+00 2.250000000000e+01 0.000000000000e+00 0.000000000000e+00 0.000000000000e+00
0.000000000000e+00 0.000000000000e+00 2.350000000000e+01 0.000000000000e+00 0.000000000000e+00 0.000000000000e+00
0.000000000000e+00 0.000000000000e+00 2.450000000000e+01 0.000000000000e+00 0.000000000000e+00 0.000000000000e+00
0.000000000000e+00 0.000000000000e+00 2.550000000000e+01 0.000000000000e+00 0.000000000000e+00 0.000000000000e+00
0.000000000000e+00 0.000000000000e+00 2.650000000000e+01 0.000000000000e+00 0.000000000000e+00 0.000000000000e+00
0.000000000000e+00 0.000000000000e+00 2.750000000000e+01 0.000000000000e+00 0.000000000000e+00 0.000000000000e+00
0.000000000000e+00 0.000000000000e+00 2.850000000000e+01 0.000000000000e+00 0.000000000000e+00 0.000000000000e+00
0.000000000000e+00 0.000000000000e+00 2.950000000000e+01 0.000000000000e+00 0.000000000000e+00 0.000000000000e+00
VARIABLES = "X","Y","Z",VELOCITY1_X,VELOCITY1_Y,VELOCITY1_Z
ZONE T="1.797693134862e+308s", 
0.000000000000e+00 0.000000000000e+00 5.000000000000e-01 2.198704462706e-12 -2.198555294025e-12 0.000000000000e+00
0.000000000000e+00 0.000000000000e+00 1.500000000000e+00 8.232192738534e-12 -1.263166213073e-11 0.000000000000e+00
0.000000000000e+00 0.000000000000e+00 2.500000000000e+00 8.523062451098e-13 -2.171878378660e-11 0.000000000000e+00
0.000000000000e+00 0.000000000000e+00 3.500000000000e+00 6.149468478808e-12 -2.871966015457e-11 0.000000000000e+00
0.000000000000e+00 0.000000000000e+00 4.500000000000e+00 3.793682114178e-11 -7.280785933584e-11 0.000000000000e+00
0.000000000000e+00 0.000000000000e+00 5.500000000000e+00 1.434844531741e-11 -1.251105539971e-10 0.000000000000e+00
0.000000000000e+00 0.000000000000e+00 6.500000000000e+00 1.229180384678e-11 -1.517494884123e-10 0.000000000000e+00
0.000000000000e+00 0.000000000000e+00 7.500000000000e+00 1.017820790809e-13 -1.641475055859e-10 0.000000000000e+00
0.000000000000e+00 0.000000000000e+00 8.500000000000e+00 4.492660390599e-13 -1.646988277238e-10 0.000000000000e+00
0.000000000000e+00 0.000000000000e+00 9.500000000000e+00 1.174502113714e-11 -1.768917161934e-10 0.000000000000e+00
0.000000000000e+00 0.000000000000e+00 1.050000000000e+01 7.500864344794e-13 -1.893892141021e-10 0.000000000000e+00
0.000000000000e+00 0.000000000000e+00 1.150000000000e+01 3.373361829647e-11 -2.238679027522e-10 0.000000000000e+00
0.000000000000e+00 0.000000000000e+00 1.250000000000e+01 1.617784002304e-12 -2.592305435154e-10 0.000000000000e+00
0.000000000000e+00 0.000000000000e+00 1.350000000000e+01 1.318180606768e-11 -2.740340904032e-10 0.000000000000e+00
0.000000000000e+00 0.000000000000e+00 1.450000000000e+01 7.496799997181e-10 -1.036891444714e-09 0.000000000000e+00
0.000000000000e+00 0.000000000000e+00 1.550000000000e+01 9.412369164447e-12 -1.796158164388e-09 0.000000000000e+00
0.000000000000e+00 0.000000000000e+00 1.650000000000e+01 2.691730062999e-10 -2.074748947517e-09 0.000000000000e+00
0.000000000000e+00 0.000000000000e+00 1.750000000000e+01 3.193902829463e-11 -2.375933790646e-09 0.000000000000e+00
0.000000000000e+00 0.000000000000e+00 1.850000000000e+01 3.151696966369e-10 -2.723010539491e-09 0.000000000000e+00
0.000000000000e+00 0.000000000000e+00 1.950000000000e+01 2.548135223830e-11 -3.063704116478e-09 0.000000000000e+00
0.000000000000e+00 0.000000000000e+00 2.050000000000e+01 1.757064484419e-12 -3.090963889266e-09 0.000000000000e+00
0.000000000000e+00 0.000000000000e+00 2.150000000000e+01 6.193500034724e-12 -3.098918494528e-09 0.000000000000e+00
0.000000000000e+00 0.000000000000e+00 2.250000000000e+01 8.052300298086e-11 -3.185641905570e-09 0.000000000000e+00
0.000000000000e+00 0.000000000000e+00 2.350000000000e+01 4.925645260678e-11 -3.315436963544e-09 0.000000000000e+00
0.000000000000e+00 0.000000000000e+00 2.450000000000e+01 2.502313985616e-11 -3.389715422617e-09 0.000000000000e+00
0.000000000000e+00 0.000000000000e+00 2.550000000000e+01 1.775231230240e-10 -3.592266471124e-09 0.000000000000e+00
0.000000000000e+00 0.000000000000e+00 2.650000000000e+01 4.340632029279e-10 -4.203852973519e-09 0.000000000000e+00
0.000000000000e+00 0.000000000000e+00 2.750000000000e+01 5.557242505940e-10 -5.193734278247e-09 0.000000000000e+00
0.000000000000e+00 0.000000000000e+00 2.850000000000e+01 1.809830835734e-12 -5.751411887597e-09 0.000000000000e+00
0.000000000000e+00 0.000000000000e+00 2.950000000000e+01 8.194329958249e-12 -5.761414458376e-09 0.000000000000e+00
