 TITLE = "Profiles along polylines"
 VARIABLES = "DIST" "HEAD" "VELOCITY_X1" "VELOCITY_Y1" "VELOCITY_Z1" 
 ZONE T="TIME=0.000000000000e+00"
0.000000000000e+00 3.000000000000e+01 0.000000000000e+00 0.000000000000e+00 0.000000000000e+00 
1.000000000000e+00 3.000000000000e+01 0.000000000000e+00 0.000000000000e+00 0.000000000000e+00 
2.000000000000e+00 3.000000000000e+01 0.000000000000e+00 0.000000000000e+00 0.000000000000e+00 
3.000000000000e+00 3.000000000000e+01 0.000000000000e+00 0.000000000000e+00 0.000000000000e+00 
4.000000000000e+00 3.000000000000e+01 0.000000000000e+00 0.000000000000e+00 0.000000000000e+00 
5.000000000000e+00 3.000000000000e+01 0.000000000000e+00 0.000000000000e+00 0.000000000000e+00 
6.000000000000e+00 3.000000000000e+01 0.000000000000e+00 0.000000000000e+00 0.000000000000e+00 
7.000000000000e+00 3.000000000000e+01 0.000000000000e+00 0.000000000000e+00 0.000000000000e+00 
8.000000000000e+00 3.000000000000e+01 0.000000000000e+00 0.000000000000e+00 0.000000000000e+00 
9.000000000000e+00 3.000000000000e+01 0.000000000000e+00 0.000000000000e+00 0.000000000000e+00 
1.000000000000e+01 3.000000000000e+01 0.000000000000e+00 0.000000000000e+00 0.000000000000e+00 
1.100000000000e+01 3.000000000000e+01 0.000000000000e+00 0.000000000000e+00 0.000000000000e+00 
1.200000000000e+01 3.000000000000e+01 0.000000000000e+00 0.000000000000e+00 0.000000000000e+00 
1.300000000000e+01 3.000000000000e+01 0.000000000000e+00 0.000000000000e+00 0.000000000000e+00 
1.400000000000e+01 3.000000000000e+01 0.000000000000e+00 0.000000000000e+00 0.000000000000e+00 
1.500000000000e+01 3.000000000000e+01 0.000000000000e+00 0.000000000000e+00 0.000000000000e+00 
1.600000000000e+01 3.000000000000e+01 0.000000000000e+00 0.000000000000e+00 0.000000000000e+00 
1.700000000000e+01 3.000000000000e+01 0.000000000000e+00 0.000000000000e+00 0.000000000000e+00 
1.800000000000e+01 3.000000000000e+01 0.000000000000e+00 0.000000000000e+00 0.000000000000e+00 
1.900000000000e+01 3.000000000000e+01 0.000000000000e+00 0.000000000000e+00 0.000000000000e+00 
2.000000000000e+01 3.000000000000e+01 0.000000000000e+00 0.000000000000e+00 0.000000000000e+00 
2.100000000000e+01 3.000000000000e+01 0.000000000000e+00 0.000000000000e+00 0.000000000000e+00 
2.200000000000e+01 3.000000000000e+01 0.000000000000e+00 0.000000000000e+00 0.000000000000e+00 
2.300000000000e+01 3.000000000000e+01 0.000000000000e+00 0.000000000000e+00 0.000000000000e+00 
2.400000000000e+01 3.000000000000e+01 0.000000000000e+00 0.000000000000e+00 0.000000000000e+00 
2.500000000000e+01 3.000000000000e+01 0.000000000000e+00 0.000000000000e+00 0.000000000000e+00 
2.600000000000e+01 3.000000000000e+01 0.000000000000e+00 0.000000000000e+00 0.000000000000e+00 
2.700000000000e+01 3.000000000000e+01 0.000000000000e+00 0.000000000000e+00 0.000000000000e+00 
2.800000000000e+01 3.000000000000e+01 0.000000000000e+00 0.000000000000e+00 0.000000000000e+00 
2.900000000000e+01 3.000000000000e+01 0.000000000000e+00 0.000000000000e+00 0.000000000000e+00 
3.000000000000e+01 3.000000000000e+01 0.000000000000e+00 0.000000000000e+00 0.000000000000e+00 
 TITLE = "Profiles along polylines"
 VARIABLES = "DIST" "HEAD" "VELOCITY_X1" "VELOCITY_Y1" "VELOCITY_Z1" 
 ZONE T="TIME=1.797693134862e+308"
0.000000000000e+00 3.010305977534e+01 3.941620424687e-09 -1.973942579775e-12 0.000000000000e+00 
1.000000000000e+00 3.010306027156e+01 9.350188879456e-09 -6.656312319069e-12 0.000000000000e+00 
2.000000000000e+00 3.010306103281e+01 8.143346952782e-09 -1.541657970997e-11 0.000000000000e+00 
3.000000000000e+00 3.010307367527e+01 6.275593338891e-09 -2.264039259517e-11 0.000000000000e+00 
4.000000000000e+00 3.010307599328e+01 3.951868150276e-08 -4.559969335506e-11 0.000000000000e+00 
5.000000000000e+00 3.010307694630e+01 4.686959731540e-08 -8.891161463333e-11 0.000000000000e+00 
6.000000000000e+00 3.010308127632e+01 2.387987943416e-08 -1.243867500064e-10 0.000000000000e+00 
7.000000000000e+00 3.010308740883e+01 1.110869651183e-08 -1.419372164423e-10 0.000000000000e+00 
8.000000000000e+00 3.010388839553e+01 4.952664748146e-10 -1.477741288037e-10 0.000000000000e+00 
9.000000000000e+00 3.010407048206e+01 1.096338231388e-08 -1.539321387541e-10 0.000000000000e+00 
1.000000000000e+01 3.010407800386e+01 1.123401280704e-08 -1.658697891256e-10 0.000000000000e+00 
1.100000000000e+01 3.010420467982e+01 3.101535175547e-08 -1.887317147404e-10 0.000000000000e+00 
1.200000000000e+01 3.010420804776e+01 3.179614289709e-08 -2.227959089452e-10 0.000000000000e+00 
1.300000000000e+01 3.010429005206e+01 1.331543995812e-08 -2.472954285611e-10 0.000000000000e+00 
1.400000000000e+01 3.010430072398e+01 6.862841310272e-07 -6.286550308236e-10 0.000000000000e+00 
1.500000000000e+01 3.010430146329e+01 6.828921387340e-07 -1.375037751212e-09 0.000000000000e+00 
1.600000000000e+01 3.010440406863e+01 2.506508382504e-07 -1.884404826224e-09 0.000000000000e+00 
1.700000000000e+01 3.010440821949e+01 2.709224846302e-07 -2.169689503018e-09 0.000000000000e+00 
1.800000000000e+01 3.010444832703e+01 3.122895499052e-07 -2.488913640464e-09 0.000000000000e+00 
1.900000000000e+01 3.010445299221e+01 3.064794580557e-07 -2.827812715198e-09 0.000000000000e+00 
2.000000000000e+01 3.010451796583e+01 2.451157803492e-08 -3.009133724734e-09 0.000000000000e+00 
2.100000000000e+01 3.010546861765e+01 7.160252959904e-09 -3.026618861421e-09 0.000000000000e+00 
2.200000000000e+01 3.010573906261e+01 7.810723376464e-08 -3.074987799019e-09 0.000000000000e+00 
2.300000000000e+01 3.010576047425e+01 1.168967362592e-07 -3.185710616761e-09 0.000000000000e+00 
2.400000000000e+01 3.010579696692e+01 6.690600912124e-08 -3.290128359732e-09 0.000000000000e+00 
2.500000000000e+01 3.010587048807e+01 1.824453193026e-07 -3.432030469201e-09 0.000000000000e+00 
2.600000000000e+01 3.010588149768e+01 5.509179403933e-07 -3.849625119096e-09 0.000000000000e+00 
2.700000000000e+01 3.010588679913e+01 8.916198663608e-07 -4.671115518258e-09 0.000000000000e+00 
2.800000000000e+01 3.010589194999e+01 5.022395249617e-07 -5.464909960190e-09 0.000000000000e+00 
2.900000000000e+01 3.010764815887e+01 9.011402103643e-09 -5.756068895684e-09 0.000000000000e+00 
3.000000000000e+01 3.010803679621e+01 1.476192008398e-08 -5.761201734157e-09 0.000000000000e+00 
