VARIABLES = "X","Y","Z",VELOCITY1_X,VELOCITY1_Y,VELOCITY1_Z
ZONE T="0.000000000000e+00s", 
8.990000000000e+02 0.000000000000e+00 5.000000000000e-01 0.000000000000e+00 0.000000000000e+00 0.000000000000e+00
9.000000000000e+02 0.000000000000e+00 5.000000000000e-01 0.000000000000e+00 0.000000000000e+00 0.000000000000e+00
8.990000000000e+02 0.000000000000e+00 1.500000000000e+00 0.000000000000e+00 0.000000000000e+00 0.000000000000e+00
9.000000000000e+02 0.000000000000e+00 1.500000000000e+00 0.000000000000e+00 0.000000000000e+00 0.000000000000e+00
8.990000000000e+02 0.000000000000e+00 2.500000000000e+00 0.000000000000e+00 0.000000000000e+00 0.000000000000e+00
9.000000000000e+02 0.000000000000e+00 2.500000000000e+00 0.000000000000e+00 0.000000000000e+00 0.000000000000e+00
8.990000000000e+02 0.000000000000e+00 3.500000000000e+00 0.000000000000e+00 0.000000000000e+00 0.000000000000e+00
9.000000000000e+02 0.000000000000e+00 3.500000000000e+00 0.000000000000e+00 0.000000000000e+00 0.000000000000e+00
8.990000000000e+02 0.000000000000e+00 4.500000000000e+00 0.000000000000e+00 0.000000000000e+00 0.000000000000e+00
9.000000000000e+02 0.000000000000e+00 4.500000000000e+00 0.000000000000e+00 0.000000000000e+00 0.000000000000e+00
8.990000000000e+02 0.000000000000e+00 5.500000000000e+00 0.000000000000e+00 0.000000000000e+00 0.000000000000e+00
9.000000000000e+02 0.000000000000e+00 5.500000000000e+00 0.000000000000e+00 0.000000000000e+00 0.000000000000e+00
8.990000000000e+02 0.000000000000e+00 6.500000000000e+00 0.000000000000e+00 0.000000000000e+00 0.000000000000e+00
9.000000000000e+02 0.000000000000e+00 6.500000000000e+00 0.000000000000e+00 0.000000000000e+00 0.000000000000e+00
8.990000000000e+02 0.000000000000e+00 7.500000000000e+00 0.000000000000e+00 0.000000000000e+00 0.000000000000e+00
9.000000000000e+02 0.000000000000e+00 7.500000000000e+00 0.000000000000e+00 0.000000000000e+00 0.000000000000e+00
8.990000000000e+02 0.000000000000e+00 8.500000000000e+00 0.000000000000e+00 0.000000000000e+00 0.000000000000e+00
9.000000000000e+02 0.000000000000e+00 8.500000000000e+00 0.000000000000e+00 0.000000000000e+00 0.000000000000e+00
8.990000000000e+02 0.000000000000e+00 9.500000000000e+00 0.000000000000e+00 0.000000000000e+00 0.000000000000e+00
9.000000000000e+02 0.000000000000e+00 9.500000000000e+00 0.000000000000e+00 0.000000000000e+00 0.000000000000e+00
8.990000000000e+02 0.000000000000e+00 1.050000000000e+01 0.000000000000e+00 0.000000000000e+00 0.000000000000e+00
9.000000000000e+02 0.000000000000e+00 1.050000000000e+01 0.000000000000e+00 0.000000000000e+00 0.000000000000e+00
8.990000000000e+02 0.000000000000e+00 1.150000000000e+01 0.000000000000e+00 0.000000000000e+00 0.000000000000e+00
9.000000000000e+02 0.000000000000e+00 1.150000000000e+01 0.000000000000e+00 0.000000000000e+00 0.000000000000e+00
8.990000000000e+02 0.000000000000e+00 1.250000000000e+01 0.000000000000e+00 0.000000000000e+00 0.000000000000e+00
9.000000000000e+02 0.000000000000e+00 1.250000000000e+01 0.000000000000e+00 0.000000000000e+00 0.000000000000e+00
8.990000000000e+02 0.000000000000e+00 1.350000000000e+01 0.000000000000e+00 0.000000000000e+00 0.000000000000e+00
9.000000000000e+02 0.000000000000e+00 1.350000000000e+01 0.000000000000e+00 0.000000000000e+00 0.000000000000e+00
8.990000000000e+02 0.000000000000e+00 1.450000000000e+01 0.000000000000e+00 0.000000000000e+00 0.000000000000e+00
9.000000000000e+02 0.000000000000e+00 1.450000000000e+01 0.000000000000e+00 0.000000000000e+00 0.000000000000e+00
8.990000000000e+02 0.000000000000e+00 1.550000000000e+01 0.000000000000e+00 0.000000000000e+00 0.000000000000e+00
9.000000000000e+02 0.000000000000e+00 1.550000000000e+01 0.000000000000e+00 0.000000000000e+00 0.000000000000e+00
8.990000000000e+02 0.000000000000e+00 1.650000000000e+01 0.000000000000e+00 0.000000000000e+00 0.000000000000e+00
9.000000000000e+02 0.000000000000e+00 1.650000000000e+01 0.000000000000e+00 0.000000000000e+00 0.000000000000e+00
8.990000000000e+02 0.000000000000e+00 1.750000000000e+01 0.000000000000e+00 0.000000000000e+00 0.000000000000e+00
9.000000000000e+02 0.000000000000e+00 1.750000000000e+01 0.000000000000e+00 0.000000000000e+00 0.000000000000e+00
8.990000000000e+02 0.000000000000e+00 1.850000000000e+01 0.000000000000e+00 0.000000000000e+00 0.000000000000e+00
9.000000000000e+02 0.000000000000e+00 1.850000000000e+01 0.000000000000e+00 0.000000000000e+00 0.000000000000e+00
8.990000000000e+02 0.000000000000e+00 1.950000000000e+01 0.000000000000e+00 0.000000000000e+00 0.000000000000e+00
9.000000000000e+02 0.000000000000e+00 1.950000000000e+01 0.000000000000e+00 0.000000000000e+00 0.000000000000e+00
8.990000000000e+02 0.000000000000e+00 2.050000000000e+01 0.000000000000e+00 0.000000000000e+00 0.000000000000e+00
9.000000000000e+02 0.000000000000e+00 2.050000000000e+01 0.000000000000e+00 0.000000000000e+00 0.000000000000e+00
8.990000000000e+02 0.000000000000e+00 2.150000000000e+01 0.000000000000e+00 0.000000000000e+00 0.000000000000e+00
9.000000000000e+02 0.000000000000e+00 2.150000000000e+01 0.000000000000e+00 0.000000000000e+00 0.000000000000e+00
8.990000000000e+02 0.000000000000e+00 2.250000000000e+01 0.000000000000e+00 0.000000000000e+00 0.000000000000e+00
9.000000000000e+02 0.000000000000e+00 2.250000000000e+01 0.000000000000e+00 0.000000000000e+00 0.000000000000e+00
8.990000000000e+02 0.000000000000e+00 2.350000000000e+01 0.000000000000e+00 0.000000000000e+00 0.000000000000e+00
9.000000000000e+02 0.000000000000e+00 2.350000000000e+01 0.000000000000e+00 0.000000000000e+00 0.000000000000e+00
8.990000000000e+02 0.000000000000e+00 2.450000000000e+01 0.000000000000e+00 0.000000000000e+00 0.000000000000e+00
9.000000000000e+02 0.000000000000e+00 2.450000000000e+01 0.000000000000e+00 0.000000000000e+00 0.000000000000e+00
8.990000000000e+02 0.000000000000e+00 2.550000000000e+01 0.000000000000e+00 0.000000000000e+00 0.000000000000e+00
9.000000000000e+02 0.000000000000e+00 2.550000000000e+01 0.000000000000e+00 0.000000000000e+00 0.000000000000e+00
8.990000000000e+02 0.000000000000e+00 2.650000000000e+01 0.000000000000e+00 0.000000000000e+00 0.000000000000e+00
9.000000000000e+02 0.000000000000e+00 2.650000000000e+01 0.000000000000e+00 0.000000000000e+00 0.000000000000e+00
8.990000000000e+02 0.000000000000e+00 2.750000000000e+01 0.000000000000e+00 0.000000000000e+00 0.000000000000e+00
9.000000000000e+02 0.000000000000e+00 2.750000000000e+01 0.000000000000e+00 0.000000000000e+00 0.000000000000e+00
8.990000000000e+02 0.000000000000e+00 2.850000000000e+01 0.000000000000e+00 0.000000000000e+00 0.000000000000e+00
9.000000000000e+02 0.000000000000e+00 2.850000000000e+01 0.000000000000e+00 0.000000000000e+00 0.000000000000e+00
8.990000000000e+02 0.000000000000e+00 2.950000000000e+01 0.000000000000e+00 0.000000000000e+00 0.000000000000e+00
9.000000000000e+02 0.000000000000e+00 2.950000000000e+01 0.000000000000e+00 0.000000000000e+00 0.000000000000e+00
VARIABLES = "X","Y","Z",VELOCITY1_X,VELOCITY1_Y,VELOCITY1_Z
ZONE T="1.797693134862e+308s", 
8.990000000000e+02 0.000000000000e+00 5.000000000000e-01 3.939647184404e-09 -1.979106229847e-12 0.000000000000e+00
9.000000000000e+02 0.000000000000e+00 5.000000000000e-01 3.943595008043e-09 -1.973255383331e-12 0.000000000000e+00
8.990000000000e+02 0.000000000000e+00 1.500000000000e+00 1.475136375860e-08 -1.136877793245e-11 0.000000000000e+00
9.000000000000e+02 0.000000000000e+00 1.500000000000e+00 1.476614671927e-08 -1.133477820050e-11 0.000000000000e+00
8.990000000000e+02 0.000000000000e+00 2.500000000000e+00 1.527149571251e-09 -1.954611218003e-11 0.000000000000e+00
9.000000000000e+02 0.000000000000e+00 2.500000000000e+00 1.528680215495e-09 -1.948775177361e-11 0.000000000000e+00
8.990000000000e+02 0.000000000000e+00 3.500000000000e+00 1.101770213295e-08 -2.585443365688e-11 0.000000000000e+00
9.000000000000e+02 0.000000000000e+00 3.500000000000e+00 1.102875439470e-08 -2.577741682413e-11 0.000000000000e+00
8.990000000000e+02 0.000000000000e+00 4.500000000000e+00 6.797998542125e-08 -6.558556072890e-11 0.000000000000e+00
9.000000000000e+02 0.000000000000e+00 4.500000000000e+00 6.804819020772e-08 -6.539071693240e-11 0.000000000000e+00
8.990000000000e+02 0.000000000000e+00 5.500000000000e+00 2.571207084684e-08 -1.127051670915e-10 0.000000000000e+00
9.000000000000e+02 0.000000000000e+00 5.500000000000e+00 2.573787018623e-08 -1.123716847558e-10 0.000000000000e+00
8.990000000000e+02 0.000000000000e+00 6.500000000000e+00 2.202348256772e-08 -1.367212490549e-10 0.000000000000e+00
9.000000000000e+02 0.000000000000e+00 6.500000000000e+00 2.204558833834e-08 -1.363167516168e-10 0.000000000000e+00
8.990000000000e+02 0.000000000000e+00 7.500000000000e+00 1.824527337281e-10 -1.478978357319e-10 0.000000000000e+00
9.000000000000e+02 0.000000000000e+00 7.500000000000e+00 1.826371474077e-10 -1.474607019458e-10 0.000000000000e+00
8.990000000000e+02 0.000000000000e+00 8.500000000000e+00 8.072166089683e-10 -1.484245937894e-10 0.000000000000e+00
9.000000000000e+02 0.000000000000e+00 8.500000000000e+00 8.080756871898e-10 -1.479867017076e-10 0.000000000000e+00
8.990000000000e+02 0.000000000000e+00 9.500000000000e+00 2.110742045127e-08 -1.602266811563e-10 0.000000000000e+00
9.000000000000e+02 0.000000000000e+00 9.500000000000e+00 2.113013444391e-08 -1.597751303506e-10 0.000000000000e+00
8.990000000000e+02 0.000000000000e+00 1.050000000000e+01 1.348170401346e-09 -1.723240093309e-10 0.000000000000e+00
9.000000000000e+02 0.000000000000e+00 1.050000000000e+01 1.349623084943e-09 -1.718588345494e-10 0.000000000000e+00
8.990000000000e+02 0.000000000000e+00 1.150000000000e+01 6.064853822165e-08 -2.059900965630e-10 0.000000000000e+00
9.000000000000e+02 0.000000000000e+00 1.150000000000e+01 6.071435449079e-08 -2.054937106452e-10 0.000000000000e+00
8.990000000000e+02 0.000000000000e+00 1.250000000000e+01 2.908875275311e-09 -2.405081114041e-10 0.000000000000e+00
9.000000000000e+02 0.000000000000e+00 1.250000000000e+01 2.912034118626e-09 -2.399798722723e-10 0.000000000000e+00
8.990000000000e+02 0.000000000000e+00 1.350000000000e+01 2.370708935026e-08 -2.550271116774e-10 0.000000000000e+00
9.000000000000e+02 0.000000000000e+00 1.350000000000e+01 2.373293663161e-08 -2.544876212937e-10 0.000000000000e+00
8.990000000000e+02 0.000000000000e+00 1.450000000000e+01 1.348112603328e-06 -1.003763892374e-09 0.000000000000e+00
9.000000000000e+02 0.000000000000e+00 1.450000000000e+01 1.349583184235e-06 -1.002629959989e-09 0.000000000000e+00
8.990000000000e+02 0.000000000000e+00 1.550000000000e+01 1.692632894806e-08 -1.748821961078e-09 0.000000000000e+00
9.000000000000e+02 0.000000000000e+00 1.550000000000e+01 1.694480007133e-08 -1.747116981838e-09 0.000000000000e+00
8.990000000000e+02 0.000000000000e+00 1.650000000000e+01 4.840998728574e-07 -2.023161176983e-09 0.000000000000e+00
9.000000000000e+02 0.000000000000e+00 1.650000000000e+01 4.846297134895e-07 -2.021274640544e-09 0.000000000000e+00
8.990000000000e+02 0.000000000000e+00 1.750000000000e+01 5.744727013844e-08 -2.319718795555e-09 0.000000000000e+00
9.000000000000e+02 0.000000000000e+00 1.750000000000e+01 5.751016110583e-08 -2.317642973798e-09 0.000000000000e+00
8.990000000000e+02 0.000000000000e+00 1.850000000000e+01 5.667881889886e-07 -2.661961113643e-09 0.000000000000e+00
9.000000000000e+02 0.000000000000e+00 1.850000000000e+01 5.674093637719e-07 -2.659676704344e-09 0.000000000000e+00
8.990000000000e+02 0.000000000000e+00 1.950000000000e+01 4.583324430126e-08 -2.997875605852e-09 0.000000000000e+00
9.000000000000e+02 0.000000000000e+00 1.950000000000e+01 4.588349160320e-08 -2.995393832151e-09 0.000000000000e+00
8.990000000000e+02 0.000000000000e+00 2.050000000000e+01 3.161098310546e-09 -3.024788902317e-09 0.000000000000e+00
9.000000000000e+02 0.000000000000e+00 2.050000000000e+01 3.164579940990e-09 -3.022293703513e-09 0.000000000000e+00
8.990000000000e+02 0.000000000000e+00 2.150000000000e+01 1.114941380191e-08 -3.032854167099e-09 0.000000000000e+00
9.000000000000e+02 0.000000000000e+00 2.150000000000e+01 1.116199575516e-08 -3.030362876395e-09 0.000000000000e+00
8.990000000000e+02 0.000000000000e+00 2.250000000000e+01 1.449744551035e-07 -3.121461388018e-09 0.000000000000e+00
9.000000000000e+02 0.000000000000e+00 2.250000000000e+01 1.451391374050e-07 -3.119040317231e-09 0.000000000000e+00
8.990000000000e+02 0.000000000000e+00 2.350000000000e+01 8.868436153450e-08 -3.254140380924e-09 0.000000000000e+00
9.000000000000e+02 0.000000000000e+00 2.350000000000e+01 8.878516011599e-08 -3.251829297731e-09 0.000000000000e+00
8.990000000000e+02 0.000000000000e+00 2.450000000000e+01 4.504980633040e-08 -3.330144096622e-09 0.000000000000e+00
9.000000000000e+02 0.000000000000e+00 2.450000000000e+01 4.510105903585e-08 -3.327895944394e-09 0.000000000000e+00
8.990000000000e+02 0.000000000000e+00 2.550000000000e+01 3.196313309614e-07 -3.537722828257e-09 0.000000000000e+00
9.000000000000e+02 0.000000000000e+00 2.550000000000e+01 3.199955037687e-07 -3.535662930764e-09 0.000000000000e+00
8.990000000000e+02 0.000000000000e+00 2.650000000000e+01 7.815754455888e-07 -4.164656536046e-09 0.000000000000e+00
9.000000000000e+02 0.000000000000e+00 2.650000000000e+01 7.824661095315e-07 -4.163174866484e-09 0.000000000000e+00
8.990000000000e+02 0.000000000000e+00 2.750000000000e+01 1.000647497404e-06 -5.179363595532e-09 0.000000000000e+00
9.000000000000e+02 0.000000000000e+00 2.750000000000e+01 1.001787871700e-06 -5.178820094222e-09 0.000000000000e+00
8.990000000000e+02 0.000000000000e+00 2.850000000000e+01 3.259019333862e-09 -5.750951373168e-09 0.000000000000e+00
9.000000000000e+02 0.000000000000e+00 2.850000000000e+01 3.262733579415e-09 -5.750934032019e-09 0.000000000000e+00
8.990000000000e+02 0.000000000000e+00 2.950000000000e+01 1.475350447596e-08 -5.761208735032e-09 0.000000000000e+00
9.000000000000e+02 0.000000000000e+00 2.950000000000e+01 1.477032156006e-08 -5.761200828367e-09 0.000000000000e+00
