 TITLE = "Profiles along polylines"
 VARIABLES = "DIST" "HEAD" "VELOCITY_X1" "VELOCITY_Y1" "VELOCITY_Z1" 
 ZONE T="TIME=0.000000000000e+00"
0.000000000000e+00 3.000000000000e+01 0.000000000000e+00 0.000000000000e+00 0.000000000000e+00 
1.000000000000e+00 3.000000000000e+01 0.000000000000e+00 0.000000000000e+00 0.000000000000e+00 
2.000000000000e+00 3.000000000000e+01 0.000000000000e+00 0.000000000000e+00 0.000000000000e+00 
3.000000000000e+00 3.000000000000e+01 0.000000000000e+00 0.000000000000e+00 0.000000000000e+00 
4.000000000000e+00 3.000000000000e+01 0.000000000000e+00 0.000000000000e+00 0.000000000000e+00 
5.000000000000e+00 3.000000000000e+01 0.000000000000e+00 0.000000000000e+00 0.000000000000e+00 
6.000000000000e+00 3.000000000000e+01 0.000000000000e+00 0.000000000000e+00 0.000000000000e+00 
7.000000000000e+00 3.000000000000e+01 0.000000000000e+00 0.000000000000e+00 0.000000000000e+00 
8.000000000000e+00 3.000000000000e+01 0.000000000000e+00 0.000000000000e+00 0.000000000000e+00 
9.000000000000e+00 3.000000000000e+01 0.000000000000e+00 0.000000000000e+00 0.000000000000e+00 
1.000000000000e+01 3.000000000000e+01 0.000000000000e+00 0.000000000000e+00 0.000000000000e+00 
1.100000000000e+01 3.000000000000e+01 0.000000000000e+00 0.000000000000e+00 0.000000000000e+00 
1.200000000000e+01 3.000000000000e+01 0.000000000000e+00 0.000000000000e+00 0.000000000000e+00 
1.300000000000e+01 3.000000000000e+01 0.000000000000e+00 0.000000000000e+00 0.000000000000e+00 
1.400000000000e+01 3.000000000000e+01 0.000000000000e+00 0.000000000000e+00 0.000000000000e+00 
1.500000000000e+01 3.000000000000e+01 0.000000000000e+00 0.000000000000e+00 0.000000000000e+00 
1.600000000000e+01 3.000000000000e+01 0.000000000000e+00 0.000000000000e+00 0.000000000000e+00 
1.700000000000e+01 3.000000000000e+01 0.000000000000e+00 0.000000000000e+00 0.000000000000e+00 
1.800000000000e+01 3.000000000000e+01 0.000000000000e+00 0.000000000000e+00 0.000000000000e+00 
1.900000000000e+01 3.000000000000e+01 0.000000000000e+00 0.000000000000e+00 0.000000000000e+00 
2.000000000000e+01 3.000000000000e+01 0.000000000000e+00 0.000000000000e+00 0.000000000000e+00 
2.100000000000e+01 3.000000000000e+01 0.000000000000e+00 0.000000000000e+00 0.000000000000e+00 
2.200000000000e+01 3.000000000000e+01 0.000000000000e+00 0.000000000000e+00 0.000000000000e+00 
2.300000000000e+01 3.000000000000e+01 0.000000000000e+00 0.000000000000e+00 0.000000000000e+00 
2.400000000000e+01 3.000000000000e+01 0.000000000000e+00 0.000000000000e+00 0.000000000000e+00 
2.500000000000e+01 3.000000000000e+01 0.000000000000e+00 0.000000000000e+00 0.000000000000e+00 
2.600000000000e+01 3.000000000000e+01 0.000000000000e+00 0.000000000000e+00 0.000000000000e+00 
2.700000000000e+01 3.000000000000e+01 0.000000000000e+00 0.000000000000e+00 0.000000000000e+00 
2.800000000000e+01 3.000000000000e+01 0.000000000000e+00 0.000000000000e+00 0.000000000000e+00 
2.900000000000e+01 3.000000000000e+01 0.000000000000e+00 0.000000000000e+00 0.000000000000e+00 
3.000000000000e+01 3.000000000000e+01 0.000000000000e+00 0.000000000000e+00 0.000000000000e+00 
 TITLE = "Profiles along polylines"
 VARIABLES = "DIST" "HEAD" "VELOCITY_X1" "VELOCITY_Y1" "VELOCITY_Z1" 
 ZONE T="TIME=1.797693134862e+308"
0.000000000000e+00 3.000000000000e+01 4.192611876073e-09 -1.069307277391e-20 0.000000000000e+00 
1.000000000000e+00 3.000000000000e+01 9.945648861975e-09 7.771680061309e-21 0.000000000000e+00 
2.000000000000e+00 3.000000000000e+01 8.662038144441e-09 3.854174152263e-21 0.000000000000e+00 
3.000000000000e+00 3.000000000000e+01 6.676445457431e-09 -6.892311287059e-21 0.000000000000e+00 
4.000000000000e+00 3.000000000000e+01 4.204423346692e-08 -1.161696908229e-20 0.000000000000e+00 
5.000000000000e+00 3.000000000000e+01 4.986557022345e-08 -5.005427199938e-20 0.000000000000e+00 
6.000000000000e+00 3.000000000000e+01 2.540780083824e-08 -1.593818861788e-20 0.000000000000e+00 
7.000000000000e+00 3.000000000000e+01 1.182045045020e-08 2.812563114283e-22 0.000000000000e+00 
8.000000000000e+00 3.000000000000e+01 5.326917912808e-10 8.625839705382e-22 0.000000000000e+00 
9.000000000000e+00 3.000000000000e+01 1.182046739229e-08 5.857024787953e-21 0.000000000000e+00 
1.000000000000e+01 3.000000000000e+01 1.211353394387e-08 6.881062726929e-21 0.000000000000e+00 
1.100000000000e+01 3.000000000000e+01 3.350582206267e-08 9.737752845916e-21 0.000000000000e+00 
1.200000000000e+01 3.000000000000e+01 3.435120485588e-08 8.011887703261e-21 0.000000000000e+00 
1.300000000000e+01 3.000000000000e+01 1.440626733345e-08 -2.851920798483e-21 0.000000000000e+00 
1.400000000000e+01 3.000000000000e+01 7.426499458558e-07 -1.811651151876e-19 0.000000000000e+00 
1.500000000000e+01 3.000000000000e+01 7.389931224955e-07 -1.896865249310e-19 0.000000000000e+00 
1.600000000000e+01 3.000000000000e+01 2.719721302431e-07 -2.375789633719e-19 0.000000000000e+00 
1.700000000000e+01 3.000000000000e+01 2.940014889853e-07 -4.379801503254e-19 0.000000000000e+00 
1.800000000000e+01 3.000000000000e+01 3.392772804780e-07 3.025176870369e-19 0.000000000000e+00 
1.900000000000e+01 3.000000000000e+01 3.330112219447e-07 1.737598576456e-20 0.000000000000e+00 
2.000000000000e+01 3.000000000000e+01 2.668691839633e-08 -3.835446971843e-20 0.000000000000e+00 
2.100000000000e+01 3.000000000000e+01 8.025009718281e-09 -6.342213678243e-21 0.000000000000e+00 
2.200000000000e+01 3.000000000000e+01 8.826236924128e-08 -8.655289278942e-20 0.000000000000e+00 
2.300000000000e+01 3.000000000000e+01 1.321986724495e-07 -2.198518998199e-19 0.000000000000e+00 
2.400000000000e+01 3.000000000000e+01 7.579105177938e-08 9.290974510074e-20 0.000000000000e+00 
2.500000000000e+01 3.000000000000e+01 2.074627646527e-07 1.965942103630e-19 0.000000000000e+00 
2.600000000000e+01 3.000000000000e+01 6.269733207990e-07 -9.367258608659e-19 0.000000000000e+00 
2.700000000000e+01 3.000000000000e+01 1.015446167251e-06 8.162316169879e-19 0.000000000000e+00 
2.800000000000e+01 3.000000000000e+01 5.726506777503e-07 -1.855037600469e-19 0.000000000000e+00 
2.900000000000e+01 3.000000000000e+01 1.538826561951e-08 -3.234289119779e-21 0.000000000000e+00 
3.000000000000e+01 3.000000000000e+01 2.936799418005e-08 -8.050845504402e-21 0.000000000000e+00 
