VARIABLES = "X","Y","Z",VELOCITY1_X,VELOCITY1_Y,VELOCITY1_Z
ZONE T="0.000000000000e+00s", 
4.990000000000e+02 0.000000000000e+00 5.000000000000e-01 0.000000000000e+00 0.000000000000e+00 0.000000000000e+00
5.000000000000e+02 0.000000000000e+00 5.000000000000e-01 0.000000000000e+00 0.000000000000e+00 0.000000000000e+00
4.990000000000e+02 0.000000000000e+00 1.500000000000e+00 0.000000000000e+00 0.000000000000e+00 0.000000000000e+00
5.000000000000e+02 0.000000000000e+00 1.500000000000e+00 0.000000000000e+00 0.000000000000e+00 0.000000000000e+00
4.990000000000e+02 0.000000000000e+00 2.500000000000e+00 0.000000000000e+00 0.000000000000e+00 0.000000000000e+00
5.000000000000e+02 0.000000000000e+00 2.500000000000e+00 0.000000000000e+00 0.000000000000e+00 0.000000000000e+00
4.990000000000e+02 0.000000000000e+00 3.500000000000e+00 0.000000000000e+00 0.000000000000e+00 0.000000000000e+00
5.000000000000e+02 0.000000000000e+00 3.500000000000e+00 0.000000000000e+00 0.000000000000e+00 0.000000000000e+00
4.990000000000e+02 0.000000000000e+00 4.500000000000e+00 0.000000000000e+00 0.000000000000e+00 0.000000000000e+00
5.000000000000e+02 0.000000000000e+00 4.500000000000e+00 0.000000000000e+00 0.000000000000e+00 0.000000000000e+00
4.990000000000e+02 0.000000000000e+00 5.500000000000e+00 0.000000000000e+00 0.000000000000e+00 0.000000000000e+00
5.000000000000e+02 0.000000000000e+00 5.500000000000e+00 0.000000000000e+00 0.000000000000e+00 0.000000000000e+00
4.990000000000e+02 0.000000000000e+00 6.500000000000e+00 0.000000000000e+00 0.000000000000e+00 0.000000000000e+00
5.000000000000e+02 0.000000000000e+00 6.500000000000e+00 0.000000000000e+00 0.000000000000e+00 0.000000000000e+00
4.990000000000e+02 0.000000000000e+00 7.500000000000e+00 0.000000000000e+00 0.000000000000e+00 0.000000000000e+00
5.000000000000e+02 0.000000000000e+00 7.500000000000e+00 0.000000000000e+00 0.000000000000e+00 0.000000000000e+00
4.990000000000e+02 0.000000000000e+00 8.500000000000e+00 0.000000000000e+00 0.000000000000e+00 0.000000000000e+00
5.000000000000e+02 0.000000000000e+00 8.500000000000e+00 0.000000000000e+00 0.000000000000e+00 0.000000000000e+00
4.990000000000e+02 0.000000000000e+00 9.500000000000e+00 0.000000000000e+00 0.000000000000e+00 0.000000000000e+00
5.000000000000e+02 0.000000000000e+00 9.500000000000e+00 0.000000000000e+00 0.000000000000e+00 0.000000000000e+00
4.990000000000e+02 0.000000000000e+00 1.050000000000e+01 0.000000000000e+00 0.000000000000e+00 0.000000000000e+00
5.000000000000e+02 0.000000000000e+00 1.050000000000e+01 0.000000000000e+00 0.000000000000e+00 0.000000000000e+00
4.990000000000e+02 0.000000000000e+00 1.150000000000e+01 0.000000000000e+00 0.000000000000e+00 0.000000000000e+00
5.000000000000e+02 0.000000000000e+00 1.150000000000e+01 0.000000000000e+00 0.000000000000e+00 0.000000000000e+00
4.990000000000e+02 0.000000000000e+00 1.250000000000e+01 0.000000000000e+00 0.000000000000e+00 0.000000000000e+00
5.000000000000e+02 0.000000000000e+00 1.250000000000e+01 0.000000000000e+00 0.000000000000e+00 0.000000000000e+00
4.990000000000e+02 0.000000000000e+00 1.350000000000e+01 0.000000000000e+00 0.000000000000e+00 0.000000000000e+00
5.000000000000e+02 0.000000000000e+00 1.350000000000e+01 0.000000000000e+00 0.000000000000e+00 0.000000000000e+00
4.990000000000e+02 0.000000000000e+00 1.450000000000e+01 0.000000000000e+00 0.000000000000e+00 0.000000000000e+00
5.000000000000e+02 0.000000000000e+00 1.450000000000e+01 0.000000000000e+00 0.000000000000e+00 0.000000000000e+00
4.990000000000e+02 0.000000000000e+00 1.550000000000e+01 0.000000000000e+00 0.000000000000e+00 0.000000000000e+00
5.000000000000e+02 0.000000000000e+00 1.550000000000e+01 0.000000000000e+00 0.000000000000e+00 0.000000000000e+00
4.990000000000e+02 0.000000000000e+00 1.650000000000e+01 0.000000000000e+00 0.000000000000e+00 0.000000000000e+00
5.000000000000e+02 0.000000000000e+00 1.650000000000e+01 0.000000000000e+00 0.000000000000e+00 0.000000000000e+00
4.990000000000e+02 0.000000000000e+00 1.750000000000e+01 0.000000000000e+00 0.000000000000e+00 0.000000000000e+00
5.000000000000e+02 0.000000000000e+00 1.750000000000e+01 0.000000000000e+00 0.000000000000e+00 0.000000000000e+00
4.990000000000e+02 0.000000000000e+00 1.850000000000e+01 0.000000000000e+00 0.000000000000e+00 0.000000000000e+00
5.000000000000e+02 0.000000000000e+00 1.850000000000e+01 0.000000000000e+00 0.000000000000e+00 0.000000000000e+00
4.990000000000e+02 0.000000000000e+00 1.950000000000e+01 0.000000000000e+00 0.000000000000e+00 0.000000000000e+00
5.000000000000e+02 0.000000000000e+00 1.950000000000e+01 0.000000000000e+00 0.000000000000e+00 0.000000000000e+00
4.990000000000e+02 0.000000000000e+00 2.050000000000e+01 0.000000000000e+00 0.000000000000e+00 0.000000000000e+00
5.000000000000e+02 0.000000000000e+00 2.050000000000e+01 0.000000000000e+00 0.000000000000e+00 0.000000000000e+00
4.990000000000e+02 0.000000000000e+00 2.150000000000e+01 0.000000000000e+00 0.000000000000e+00 0.000000000000e+00
5.000000000000e+02 0.000000000000e+00 2.150000000000e+01 0.000000000000e+00 0.000000000000e+00 0.000000000000e+00
4.990000000000e+02 0.000000000000e+00 2.250000000000e+01 0.000000000000e+00 0.000000000000e+00 0.000000000000e+00
5.000000000000e+02 0.000000000000e+00 2.250000000000e+01 0.000000000000e+00 0.000000000000e+00 0.000000000000e+00
4.990000000000e+02 0.000000000000e+00 2.350000000000e+01 0.000000000000e+00 0.000000000000e+00 0.000000000000e+00
5.000000000000e+02 0.000000000000e+00 2.350000000000e+01 0.000000000000e+00 0.000000000000e+00 0.000000000000e+00
4.990000000000e+02 0.000000000000e+00 2.450000000000e+01 0.000000000000e+00 0.000000000000e+00 0.000000000000e+00
5.000000000000e+02 0.000000000000e+00 2.450000000000e+01 0.000000000000e+00 0.000000000000e+00 0.000000000000e+00
4.990000000000e+02 0.000000000000e+00 2.550000000000e+01 0.000000000000e+00 0.000000000000e+00 0.000000000000e+00
5.000000000000e+02 0.000000000000e+00 2.550000000000e+01 0.000000000000e+00 0.000000000000e+00 0.000000000000e+00
4.990000000000e+02 0.000000000000e+00 2.650000000000e+01 0.000000000000e+00 0.000000000000e+00 0.000000000000e+00
5.000000000000e+02 0.000000000000e+00 2.650000000000e+01 0.000000000000e+00 0.000000000000e+00 0.000000000000e+00
4.990000000000e+02 0.000000000000e+00 2.750000000000e+01 0.000000000000e+00 0.000000000000e+00 0.000000000000e+00
5.000000000000e+02 0.000000000000e+00 2.750000000000e+01 0.000000000000e+00 0.000000000000e+00 0.000000000000e+00
4.990000000000e+02 0.000000000000e+00 2.850000000000e+01 0.000000000000e+00 0.000000000000e+00 0.000000000000e+00
5.000000000000e+02 0.000000000000e+00 2.850000000000e+01 0.000000000000e+00 0.000000000000e+00 0.000000000000e+00
4.990000000000e+02 0.000000000000e+00 2.950000000000e+01 0.000000000000e+00 0.000000000000e+00 0.000000000000e+00
5.000000000000e+02 0.000000000000e+00 2.950000000000e+01 0.000000000000e+00 0.000000000000e+00 0.000000000000e+00
VARIABLES = "X","Y","Z",VELOCITY1_X,VELOCITY1_Y,VELOCITY1_Z
ZONE T="1.797693134862e+308s", 
4.990000000000e+02 0.000000000000e+00 5.000000000000e-01 2.196665958661e-09 -2.199611360239e-12 0.000000000000e+00
5.000000000000e+02 0.000000000000e+00 5.000000000000e-01 2.201064210909e-09 -2.199357271776e-12 0.000000000000e+00
4.990000000000e+02 0.000000000000e+00 1.500000000000e+00 8.225043875083e-09 -1.263190851135e-11 0.000000000000e+00
5.000000000000e+02 0.000000000000e+00 1.500000000000e+00 8.241512095315e-09 -1.263248085946e-11 0.000000000000e+00
4.990000000000e+02 0.000000000000e+00 2.500000000000e+00 8.515003789731e-10 -2.171790542919e-11 0.000000000000e+00
5.000000000000e+02 0.000000000000e+00 2.500000000000e+00 8.532052666943e-10 -2.171792624099e-11 0.000000000000e+00
4.990000000000e+02 0.000000000000e+00 3.500000000000e+00 6.142982386954e-09 -2.872146210296e-11 0.000000000000e+00
5.000000000000e+02 0.000000000000e+00 3.500000000000e+00 6.155281607993e-09 -2.872100361273e-11 0.000000000000e+00
4.990000000000e+02 0.000000000000e+00 4.500000000000e+00 3.790238237833e-08 -7.281393070065e-11 0.000000000000e+00
5.000000000000e+02 0.000000000000e+00 4.500000000000e+00 3.797827415010e-08 -7.281263854216e-11 0.000000000000e+00
4.990000000000e+02 0.000000000000e+00 5.500000000000e+00 1.433576199209e-08 -1.251048901940e-10 0.000000000000e+00
5.000000000000e+02 0.000000000000e+00 5.500000000000e+00 1.436446465575e-08 -1.251048691654e-10 0.000000000000e+00
4.990000000000e+02 0.000000000000e+00 6.500000000000e+00 1.227902389793e-08 -1.517521366021e-10 0.000000000000e+00
5.000000000000e+02 0.000000000000e+00 6.500000000000e+00 1.230360856868e-08 -1.517515413479e-10 0.000000000000e+00
4.990000000000e+02 0.000000000000e+00 7.500000000000e+00 1.016961026260e-10 -1.641435080716e-10 0.000000000000e+00
5.000000000000e+02 0.000000000000e+00 7.500000000000e+00 1.018997287677e-10 -1.641433490549e-10 0.000000000000e+00
4.990000000000e+02 0.000000000000e+00 8.500000000000e+00 4.489506010266e-10 -1.646947674117e-10 0.000000000000e+00
5.000000000000e+02 0.000000000000e+00 8.500000000000e+00 4.498494419648e-10 -1.646946366955e-10 0.000000000000e+00
4.990000000000e+02 0.000000000000e+00 9.500000000000e+00 1.173368176555e-08 -1.768912331335e-10 0.000000000000e+00
5.000000000000e+02 0.000000000000e+00 9.500000000000e+00 1.175717529015e-08 -1.768907137631e-10 0.000000000000e+00
4.990000000000e+02 0.000000000000e+00 1.050000000000e+01 7.494090015819e-10 -1.893858816499e-10 0.000000000000e+00
5.000000000000e+02 0.000000000000e+00 1.050000000000e+01 7.509093610548e-10 -1.893857599819e-10 0.000000000000e+00
4.990000000000e+02 0.000000000000e+00 1.150000000000e+01 3.370245663880e-08 -2.238729743664e-10 0.000000000000e+00
5.000000000000e+02 0.000000000000e+00 1.150000000000e+01 3.376993466597e-08 -2.238758523286e-10 0.000000000000e+00
4.990000000000e+02 0.000000000000e+00 1.250000000000e+01 1.616420258792e-09 -2.592280138483e-10 0.000000000000e+00
5.000000000000e+02 0.000000000000e+00 1.250000000000e+01 1.619656592476e-09 -2.592279599690e-10 0.000000000000e+00
4.990000000000e+02 0.000000000000e+00 1.350000000000e+01 1.317154060303e-08 -2.740322670419e-10 0.000000000000e+00
5.000000000000e+02 0.000000000000e+00 1.350000000000e+01 1.319791121648e-08 -2.740316899591e-10 0.000000000000e+00
4.990000000000e+02 0.000000000000e+00 1.450000000000e+01 7.489895158327e-07 -1.037059121124e-09 0.000000000000e+00
5.000000000000e+02 0.000000000000e+00 1.450000000000e+01 7.504891059650e-07 -1.037078077902e-09 0.000000000000e+00
4.990000000000e+02 0.000000000000e+00 1.550000000000e+01 9.403880299608e-09 -1.796145319390e-09 0.000000000000e+00
5.000000000000e+02 0.000000000000e+00 1.550000000000e+01 9.422709580734e-09 -1.796146166765e-09 0.000000000000e+00
4.990000000000e+02 0.000000000000e+00 1.650000000000e+01 2.689307172816e-07 -2.074799384413e-09 0.000000000000e+00
5.000000000000e+02 0.000000000000e+00 1.650000000000e+01 2.694692052380e-07 -2.074770651075e-09 0.000000000000e+00
4.990000000000e+02 0.000000000000e+00 1.750000000000e+01 3.191329403252e-08 -2.375924654837e-09 0.000000000000e+00
5.000000000000e+02 0.000000000000e+00 1.750000000000e+01 3.197718957767e-08 -2.375922700624e-09 0.000000000000e+00
4.990000000000e+02 0.000000000000e+00 1.850000000000e+01 3.148538407312e-07 -2.723015411168e-09 0.000000000000e+00
5.000000000000e+02 0.000000000000e+00 1.850000000000e+01 3.154841485634e-07 -2.723071219721e-09 0.000000000000e+00
4.990000000000e+02 0.000000000000e+00 1.950000000000e+01 2.546036098886e-08 -3.063720640325e-09 0.000000000000e+00
5.000000000000e+02 0.000000000000e+00 1.950000000000e+01 2.551133922317e-08 -3.063707794159e-09 0.000000000000e+00
4.990000000000e+02 0.000000000000e+00 2.050000000000e+01 1.755751072752e-09 -3.090960124013e-09 0.000000000000e+00
5.000000000000e+02 0.000000000000e+00 2.050000000000e+01 1.759264809838e-09 -3.090960643710e-09 0.000000000000e+00
4.990000000000e+02 0.000000000000e+00 2.150000000000e+01 6.188183615963e-09 -3.098913178706e-09 0.000000000000e+00
5.000000000000e+02 0.000000000000e+00 2.150000000000e+01 6.200570346393e-09 -3.098914410101e-09 0.000000000000e+00
4.990000000000e+02 0.000000000000e+00 2.250000000000e+01 8.044813909731e-08 -3.185648291369e-09 0.000000000000e+00
5.000000000000e+02 0.000000000000e+00 2.250000000000e+01 8.060921788879e-08 -3.185642620854e-09 0.000000000000e+00
4.990000000000e+02 0.000000000000e+00 2.350000000000e+01 4.921119447959e-08 -3.315425280487e-09 0.000000000000e+00
5.000000000000e+02 0.000000000000e+00 2.350000000000e+01 4.930972495427e-08 -3.315433140850e-09 0.000000000000e+00
4.990000000000e+02 0.000000000000e+00 2.450000000000e+01 2.499754159796e-08 -3.389715899139e-09 0.000000000000e+00
5.000000000000e+02 0.000000000000e+00 2.450000000000e+01 2.504759488915e-08 -3.389712734599e-09 0.000000000000e+00
4.990000000000e+02 0.000000000000e+00 2.550000000000e+01 1.773512723747e-07 -3.592296033505e-09 0.000000000000e+00
5.000000000000e+02 0.000000000000e+00 2.550000000000e+01 1.777063717114e-07 -3.592288384186e-09 0.000000000000e+00
4.990000000000e+02 0.000000000000e+00 2.650000000000e+01 4.336639537730e-07 -4.203909050189e-09 0.000000000000e+00
5.000000000000e+02 0.000000000000e+00 2.650000000000e+01 4.345322027052e-07 -4.203948272331e-09 0.000000000000e+00
4.990000000000e+02 0.000000000000e+00 2.750000000000e+01 5.552169812793e-07 -5.193832334522e-09 0.000000000000e+00
5.000000000000e+02 0.000000000000e+00 2.750000000000e+01 5.563286598963e-07 -5.193792913406e-09 0.000000000000e+00
4.990000000000e+02 0.000000000000e+00 2.850000000000e+01 1.808290193171e-09 -5.751410937532e-09 0.000000000000e+00
5.000000000000e+02 0.000000000000e+00 2.850000000000e+01 1.811910654320e-09 -5.751410990442e-09 0.000000000000e+00
4.990000000000e+02 0.000000000000e+00 2.950000000000e+01 8.186048363875e-09 -5.761416821965e-09 0.000000000000e+00
5.000000000000e+02 0.000000000000e+00 2.950000000000e+01 8.202437946595e-09 -5.761416619254e-09 0.000000000000e+00
