VARIABLES = "X","Y","Z",VELOCITY1_X,VELOCITY1_Y,VELOCITY1_Z
ZONE T="0.000000000000e+00s", 
4.900000000000e+01 0.000000000000e+00 5.000000000000e-01 0.000000000000e+00 0.000000000000e+00 0.000000000000e+00
5.000000000000e+01 0.000000000000e+00 5.000000000000e-01 0.000000000000e+00 0.000000000000e+00 0.000000000000e+00
4.900000000000e+01 0.000000000000e+00 1.500000000000e+00 0.000000000000e+00 0.000000000000e+00 0.000000000000e+00
5.000000000000e+01 0.000000000000e+00 1.500000000000e+00 0.000000000000e+00 0.000000000000e+00 0.000000000000e+00
4.900000000000e+01 0.000000000000e+00 2.500000000000e+00 0.000000000000e+00 0.000000000000e+00 0.000000000000e+00
5.000000000000e+01 0.000000000000e+00 2.500000000000e+00 0.000000000000e+00 0.000000000000e+00 0.000000000000e+00
4.900000000000e+01 0.000000000000e+00 3.500000000000e+00 0.000000000000e+00 0.000000000000e+00 0.000000000000e+00
5.000000000000e+01 0.000000000000e+00 3.500000000000e+00 0.000000000000e+00 0.000000000000e+00 0.000000000000e+00
4.900000000000e+01 0.000000000000e+00 4.500000000000e+00 0.000000000000e+00 0.000000000000e+00 0.000000000000e+00
5.000000000000e+01 0.000000000000e+00 4.500000000000e+00 0.000000000000e+00 0.000000000000e+00 0.000000000000e+00
4.900000000000e+01 0.000000000000e+00 5.500000000000e+00 0.000000000000e+00 0.000000000000e+00 0.000000000000e+00
5.000000000000e+01 0.000000000000e+00 5.500000000000e+00 0.000000000000e+00 0.000000000000e+00 0.000000000000e+00
4.900000000000e+01 0.000000000000e+00 6.500000000000e+00 0.000000000000e+00 0.000000000000e+00 0.000000000000e+00
5.000000000000e+01 0.000000000000e+00 6.500000000000e+00 0.000000000000e+00 0.000000000000e+00 0.000000000000e+00
4.900000000000e+01 0.000000000000e+00 7.500000000000e+00 0.000000000000e+00 0.000000000000e+00 0.000000000000e+00
5.000000000000e+01 0.000000000000e+00 7.500000000000e+00 0.000000000000e+00 0.000000000000e+00 0.000000000000e+00
4.900000000000e+01 0.000000000000e+00 8.500000000000e+00 0.000000000000e+00 0.000000000000e+00 0.000000000000e+00
5.000000000000e+01 0.000000000000e+00 8.500000000000e+00 0.000000000000e+00 0.000000000000e+00 0.000000000000e+00
4.900000000000e+01 0.000000000000e+00 9.500000000000e+00 0.000000000000e+00 0.000000000000e+00 0.000000000000e+00
5.000000000000e+01 0.000000000000e+00 9.500000000000e+00 0.000000000000e+00 0.000000000000e+00 0.000000000000e+00
4.900000000000e+01 0.000000000000e+00 1.050000000000e+01 0.000000000000e+00 0.000000000000e+00 0.000000000000e+00
5.000000000000e+01 0.000000000000e+00 1.050000000000e+01 0.000000000000e+00 0.000000000000e+00 0.000000000000e+00
4.900000000000e+01 0.000000000000e+00 1.150000000000e+01 0.000000000000e+00 0.000000000000e+00 0.000000000000e+00
5.000000000000e+01 0.000000000000e+00 1.150000000000e+01 0.000000000000e+00 0.000000000000e+00 0.000000000000e+00
4.900000000000e+01 0.000000000000e+00 1.250000000000e+01 0.000000000000e+00 0.000000000000e+00 0.000000000000e+00
5.000000000000e+01 0.000000000000e+00 1.250000000000e+01 0.000000000000e+00 0.000000000000e+00 0.000000000000e+00
4.900000000000e+01 0.000000000000e+00 1.350000000000e+01 0.000000000000e+00 0.000000000000e+00 0.000000000000e+00
5.000000000000e+01 0.000000000000e+00 1.350000000000e+01 0.000000000000e+00 0.000000000000e+00 0.000000000000e+00
4.900000000000e+01 0.000000000000e+00 1.450000000000e+01 0.000000000000e+00 0.000000000000e+00 0.000000000000e+00
5.000000000000e+01 0.000000000000e+00 1.450000000000e+01 0.000000000000e+00 0.000000000000e+00 0.000000000000e+00
4.900000000000e+01 0.000000000000e+00 1.550000000000e+01 0.000000000000e+00 0.000000000000e+00 0.000000000000e+00
5.000000000000e+01 0.000000000000e+00 1.550000000000e+01 0.000000000000e+00 0.000000000000e+00 0.000000000000e+00
4.900000000000e+01 0.000000000000e+00 1.650000000000e+01 0.000000000000e+00 0.000000000000e+00 0.000000000000e+00
5.000000000000e+01 0.000000000000e+00 1.650000000000e+01 0.000000000000e+00 0.000000000000e+00 0.000000000000e+00
4.900000000000e+01 0.000000000000e+00 1.750000000000e+01 0.000000000000e+00 0.000000000000e+00 0.000000000000e+00
5.000000000000e+01 0.000000000000e+00 1.750000000000e+01 0.000000000000e+00 0.000000000000e+00 0.000000000000e+00
4.900000000000e+01 0.000000000000e+00 1.850000000000e+01 0.000000000000e+00 0.000000000000e+00 0.000000000000e+00
5.000000000000e+01 0.000000000000e+00 1.850000000000e+01 0.000000000000e+00 0.000000000000e+00 0.000000000000e+00
4.900000000000e+01 0.000000000000e+00 1.950000000000e+01 0.000000000000e+00 0.000000000000e+00 0.000000000000e+00
5.000000000000e+01 0.000000000000e+00 1.950000000000e+01 0.000000000000e+00 0.000000000000e+00 0.000000000000e+00
4.900000000000e+01 0.000000000000e+00 2.050000000000e+01 0.000000000000e+00 0.000000000000e+00 0.000000000000e+00
5.000000000000e+01 0.000000000000e+00 2.050000000000e+01 0.000000000000e+00 0.000000000000e+00 0.000000000000e+00
4.900000000000e+01 0.000000000000e+00 2.150000000000e+01 0.000000000000e+00 0.000000000000e+00 0.000000000000e+00
5.000000000000e+01 0.000000000000e+00 2.150000000000e+01 0.000000000000e+00 0.000000000000e+00 0.000000000000e+00
4.900000000000e+01 0.000000000000e+00 2.250000000000e+01 0.000000000000e+00 0.000000000000e+00 0.000000000000e+00
5.000000000000e+01 0.000000000000e+00 2.250000000000e+01 0.000000000000e+00 0.000000000000e+00 0.000000000000e+00
4.900000000000e+01 0.000000000000e+00 2.350000000000e+01 0.000000000000e+00 0.000000000000e+00 0.000000000000e+00
5.000000000000e+01 0.000000000000e+00 2.350000000000e+01 0.000000000000e+00 0.000000000000e+00 0.000000000000e+00
4.900000000000e+01 0.000000000000e+00 2.450000000000e+01 0.000000000000e+00 0.000000000000e+00 0.000000000000e+00
5.000000000000e+01 0.000000000000e+00 2.450000000000e+01 0.000000000000e+00 0.000000000000e+00 0.000000000000e+00
4.900000000000e+01 0.000000000000e+00 2.550000000000e+01 0.000000000000e+00 0.000000000000e+00 0.000000000000e+00
5.000000000000e+01 0.000000000000e+00 2.550000000000e+01 0.000000000000e+00 0.000000000000e+00 0.000000000000e+00
4.900000000000e+01 0.000000000000e+00 2.650000000000e+01 0.000000000000e+00 0.000000000000e+00 0.000000000000e+00
5.000000000000e+01 0.000000000000e+00 2.650000000000e+01 0.000000000000e+00 0.000000000000e+00 0.000000000000e+00
4.900000000000e+01 0.000000000000e+00 2.750000000000e+01 0.000000000000e+00 0.000000000000e+00 0.000000000000e+00
5.000000000000e+01 0.000000000000e+00 2.750000000000e+01 0.000000000000e+00 0.000000000000e+00 0.000000000000e+00
4.900000000000e+01 0.000000000000e+00 2.850000000000e+01 0.000000000000e+00 0.000000000000e+00 0.000000000000e+00
5.000000000000e+01 0.000000000000e+00 2.850000000000e+01 0.000000000000e+00 0.000000000000e+00 0.000000000000e+00
4.900000000000e+01 0.000000000000e+00 2.950000000000e+01 0.000000000000e+00 0.000000000000e+00 0.000000000000e+00
5.000000000000e+01 0.000000000000e+00 2.950000000000e+01 0.000000000000e+00 0.000000000000e+00 0.000000000000e+00
VARIABLES = "X","Y","Z",VELOCITY1_X,VELOCITY1_Y,VELOCITY1_Z
ZONE T="1.797693134862e+308s", 
4.900000000000e+01 0.000000000000e+00 5.000000000000e-01 2.176653710562e-10 -2.198917665807e-12 0.000000000000e+00
5.000000000000e+01 0.000000000000e+00 5.000000000000e-01 2.220630111277e-10 -2.198504049530e-12 0.000000000000e+00
4.900000000000e+01 0.000000000000e+00 1.500000000000e+00 8.150127333870e-10 -1.263265892449e-11 0.000000000000e+00
5.000000000000e+01 0.000000000000e+00 1.500000000000e+00 8.314784049408e-10 -1.263054511000e-11 0.000000000000e+00
4.900000000000e+01 0.000000000000e+00 2.500000000000e+00 8.437468007709e-11 -2.171848526144e-11 0.000000000000e+00
5.000000000000e+01 0.000000000000e+00 2.500000000000e+00 8.607904367011e-11 -2.171857225573e-11 0.000000000000e+00
4.900000000000e+01 0.000000000000e+00 3.500000000000e+00 6.087040516393e-10 -2.872014903691e-11 0.000000000000e+00
5.000000000000e+01 0.000000000000e+00 3.500000000000e+00 6.210000654105e-10 -2.871964343693e-11 0.000000000000e+00
4.900000000000e+01 0.000000000000e+00 4.500000000000e+00 3.755724310000e-09 -7.280945142921e-11 0.000000000000e+00
5.000000000000e+01 0.000000000000e+00 4.500000000000e+00 3.831588402223e-09 -7.281382462612e-11 0.000000000000e+00
4.900000000000e+01 0.000000000000e+00 5.500000000000e+00 1.420520246359e-09 -1.251094617996e-10 0.000000000000e+00
5.000000000000e+01 0.000000000000e+00 5.500000000000e+00 1.449218455688e-09 -1.251076133093e-10 0.000000000000e+00
4.900000000000e+01 0.000000000000e+00 6.500000000000e+00 1.216721081969e-09 -1.517501374645e-10 0.000000000000e+00
5.000000000000e+01 0.000000000000e+00 6.500000000000e+00 1.241298735324e-09 -1.517522902543e-10 0.000000000000e+00
4.900000000000e+01 0.000000000000e+00 7.500000000000e+00 1.007699205739e-11 -1.641463900150e-10 0.000000000000e+00
5.000000000000e+01 0.000000000000e+00 7.500000000000e+00 1.028057677488e-11 -1.641463209544e-10 0.000000000000e+00
4.900000000000e+01 0.000000000000e+00 8.500000000000e+00 4.448640044313e-11 -1.646975430826e-10 0.000000000000e+00
5.000000000000e+01 0.000000000000e+00 8.500000000000e+00 4.538496602782e-11 -1.646976466683e-10 0.000000000000e+00
4.900000000000e+01 0.000000000000e+00 9.500000000000e+00 1.162684210575e-09 -1.768901360389e-10 0.000000000000e+00
5.000000000000e+01 0.000000000000e+00 9.500000000000e+00 1.186174115543e-09 -1.768905405892e-10 0.000000000000e+00
4.900000000000e+01 0.000000000000e+00 1.050000000000e+01 7.425851288256e-11 -1.893877348524e-10 0.000000000000e+00
5.000000000000e+01 0.000000000000e+00 1.050000000000e+01 7.575879691377e-11 -1.893876469920e-10 0.000000000000e+00
4.900000000000e+01 0.000000000000e+00 1.150000000000e+01 3.339560879465e-09 -2.238762189853e-10 0.000000000000e+00
5.000000000000e+01 0.000000000000e+00 1.150000000000e+01 3.407028356440e-09 -2.238754195393e-10 0.000000000000e+00
4.900000000000e+01 0.000000000000e+00 1.250000000000e+01 1.601703994116e-10 -2.592289160180e-10 0.000000000000e+00
5.000000000000e+01 0.000000000000e+00 1.250000000000e+01 1.634062182357e-10 -2.592287939913e-10 0.000000000000e+00
4.900000000000e+01 0.000000000000e+00 1.350000000000e+01 1.305163096394e-09 -2.740321971310e-10 0.000000000000e+00
5.000000000000e+01 0.000000000000e+00 1.350000000000e+01 1.331530643762e-09 -2.740330180122e-10 0.000000000000e+00
4.900000000000e+01 0.000000000000e+00 1.450000000000e+01 7.421704427467e-08 -1.036842081919e-09 0.000000000000e+00
5.000000000000e+01 0.000000000000e+00 1.450000000000e+01 7.571644774784e-08 -1.036869085931e-09 0.000000000000e+00
4.900000000000e+01 0.000000000000e+00 1.550000000000e+01 9.318262325543e-10 -1.796158719786e-09 0.000000000000e+00
5.000000000000e+01 0.000000000000e+00 1.550000000000e+01 9.506516667868e-10 -1.796158102556e-09 0.000000000000e+00
4.900000000000e+01 0.000000000000e+00 1.650000000000e+01 2.664824103036e-08 -2.074731657685e-09 0.000000000000e+00
5.000000000000e+01 0.000000000000e+00 1.650000000000e+01 2.718659618855e-08 -2.074737502282e-09 0.000000000000e+00
4.900000000000e+01 0.000000000000e+00 1.750000000000e+01 3.162275298577e-09 -2.375930456084e-09 0.000000000000e+00
5.000000000000e+01 0.000000000000e+00 1.750000000000e+01 3.226160696988e-09 -2.375927550225e-09 0.000000000000e+00
4.900000000000e+01 0.000000000000e+00 1.850000000000e+01 3.119876281861e-08 -2.723049002443e-09 0.000000000000e+00
5.000000000000e+01 0.000000000000e+00 1.850000000000e+01 3.182902989077e-08 -2.723064524963e-09 0.000000000000e+00
4.900000000000e+01 0.000000000000e+00 1.950000000000e+01 2.522857763635e-09 -3.063711213524e-09 0.000000000000e+00
5.000000000000e+01 0.000000000000e+00 1.950000000000e+01 2.573825013022e-09 -3.063711842032e-09 0.000000000000e+00
4.900000000000e+01 0.000000000000e+00 2.050000000000e+01 1.739766014248e-10 -3.090959617689e-09 0.000000000000e+00
5.000000000000e+01 0.000000000000e+00 2.050000000000e+01 1.774912557530e-10 -3.090959617497e-09 0.000000000000e+00
4.900000000000e+01 0.000000000000e+00 2.150000000000e+01 6.131842804189e-10 -3.098910512992e-09 0.000000000000e+00
5.000000000000e+01 0.000000000000e+00 2.150000000000e+01 6.255765993506e-10 -3.098908469545e-09 0.000000000000e+00
4.900000000000e+01 0.000000000000e+00 2.250000000000e+01 7.971600484996e-09 -3.185625869647e-09 0.000000000000e+00
5.000000000000e+01 0.000000000000e+00 2.250000000000e+01 8.132639330871e-09 -3.185639454868e-09 0.000000000000e+00
4.900000000000e+01 0.000000000000e+00 2.350000000000e+01 4.876326254238e-09 -3.315428722938e-09 0.000000000000e+00
5.000000000000e+01 0.000000000000e+00 2.350000000000e+01 4.974846220347e-09 -3.315417817148e-09 0.000000000000e+00
4.900000000000e+01 0.000000000000e+00 2.450000000000e+01 2.477007237741e-09 -3.389714734289e-09 0.000000000000e+00
5.000000000000e+01 0.000000000000e+00 2.450000000000e+01 2.527039651197e-09 -3.389716648259e-09 0.000000000000e+00
4.900000000000e+01 0.000000000000e+00 2.550000000000e+01 1.757372230461e-08 -3.592247634219e-09 0.000000000000e+00
5.000000000000e+01 0.000000000000e+00 2.550000000000e+01 1.792873354053e-08 -3.592265429383e-09 0.000000000000e+00
4.900000000000e+01 0.000000000000e+00 2.650000000000e+01 4.297167725335e-08 -4.203905752382e-09 0.000000000000e+00
5.000000000000e+01 0.000000000000e+00 2.650000000000e+01 4.383985795201e-08 -4.203862878100e-09 0.000000000000e+00
4.900000000000e+01 0.000000000000e+00 2.750000000000e+01 5.501640752987e-08 -5.193782933105e-09 0.000000000000e+00
5.000000000000e+01 0.000000000000e+00 2.750000000000e+01 5.612780702882e-08 -5.193812634680e-09 0.000000000000e+00
4.900000000000e+01 0.000000000000e+00 2.850000000000e+01 1.791832114239e-10 -5.751411467732e-09 0.000000000000e+00
5.000000000000e+01 0.000000000000e+00 2.850000000000e+01 1.828031630670e-10 -5.751411461205e-09 0.000000000000e+00
4.900000000000e+01 0.000000000000e+00 2.950000000000e+01 8.111544955144e-10 -5.761415829793e-09 0.000000000000e+00
5.000000000000e+01 0.000000000000e+00 2.950000000000e+01 8.275415028371e-10 -5.761415175210e-09 0.000000000000e+00
