 TITLE = "Profiles along polylines"
 VARIABLES = "DIST" "HEAD" "VELOCITY_X1" "VELOCITY_Y1" "VELOCITY_Z1" 
 ZONE T="TIME=0.000000000000e+00"
0.000000000000e+00 3.000000000000e+01 0.000000000000e+00 0.000000000000e+00 0.000000000000e+00 
1.000000000000e+00 3.000000000000e+01 0.000000000000e+00 0.000000000000e+00 0.000000000000e+00 
2.000000000000e+00 3.000000000000e+01 0.000000000000e+00 0.000000000000e+00 0.000000000000e+00 
3.000000000000e+00 3.000000000000e+01 0.000000000000e+00 0.000000000000e+00 0.000000000000e+00 
4.000000000000e+00 3.000000000000e+01 0.000000000000e+00 0.000000000000e+00 0.000000000000e+00 
5.000000000000e+00 3.000000000000e+01 0.000000000000e+00 0.000000000000e+00 0.000000000000e+00 
6.000000000000e+00 3.000000000000e+01 0.000000000000e+00 0.000000000000e+00 0.000000000000e+00 
7.000000000000e+00 3.000000000000e+01 0.000000000000e+00 0.000000000000e+00 0.000000000000e+00 
8.000000000000e+00 3.000000000000e+01 0.000000000000e+00 0.000000000000e+00 0.000000000000e+00 
9.000000000000e+00 3.000000000000e+01 0.000000000000e+00 0.000000000000e+00 0.000000000000e+00 
1.000000000000e+01 3.000000000000e+01 0.000000000000e+00 0.000000000000e+00 0.000000000000e+00 
1.100000000000e+01 3.000000000000e+01 0.000000000000e+00 0.000000000000e+00 0.000000000000e+00 
1.200000000000e+01 3.000000000000e+01 0.000000000000e+00 0.000000000000e+00 0.000000000000e+00 
1.300000000000e+01 3.000000000000e+01 0.000000000000e+00 0.000000000000e+00 0.000000000000e+00 
1.400000000000e+01 3.000000000000e+01 0.000000000000e+00 0.000000000000e+00 0.000000000000e+00 
1.500000000000e+01 3.000000000000e+01 0.000000000000e+00 0.000000000000e+00 0.000000000000e+00 
1.600000000000e+01 3.000000000000e+01 0.000000000000e+00 0.000000000000e+00 0.000000000000e+00 
1.700000000000e+01 3.000000000000e+01 0.000000000000e+00 0.000000000000e+00 0.000000000000e+00 
1.800000000000e+01 3.000000000000e+01 0.000000000000e+00 0.000000000000e+00 0.000000000000e+00 
1.900000000000e+01 3.000000000000e+01 0.000000000000e+00 0.000000000000e+00 0.000000000000e+00 
2.000000000000e+01 3.000000000000e+01 0.000000000000e+00 0.000000000000e+00 0.000000000000e+00 
2.100000000000e+01 3.000000000000e+01 0.000000000000e+00 0.000000000000e+00 0.000000000000e+00 
2.200000000000e+01 3.000000000000e+01 0.000000000000e+00 0.000000000000e+00 0.000000000000e+00 
2.300000000000e+01 3.000000000000e+01 0.000000000000e+00 0.000000000000e+00 0.000000000000e+00 
2.400000000000e+01 3.000000000000e+01 0.000000000000e+00 0.000000000000e+00 0.000000000000e+00 
2.500000000000e+01 3.000000000000e+01 0.000000000000e+00 0.000000000000e+00 0.000000000000e+00 
2.600000000000e+01 3.000000000000e+01 0.000000000000e+00 0.000000000000e+00 0.000000000000e+00 
2.700000000000e+01 3.000000000000e+01 0.000000000000e+00 0.000000000000e+00 0.000000000000e+00 
2.800000000000e+01 3.000000000000e+01 0.000000000000e+00 0.000000000000e+00 0.000000000000e+00 
2.900000000000e+01 3.000000000000e+01 0.000000000000e+00 0.000000000000e+00 0.000000000000e+00 
3.000000000000e+01 3.000000000000e+01 0.000000000000e+00 0.000000000000e+00 0.000000000000e+00 
 TITLE = "Profiles along polylines"
 VARIABLES = "DIST" "HEAD" "VELOCITY_X1" "VELOCITY_Y1" "VELOCITY_Z1" 
 ZONE T="TIME=1.797693134862e+308"
0.000000000000e+00 3.023972625866e+01 3.298148604932e-09 -2.195236535459e-12 0.000000000000e+00 
1.000000000000e+00 3.023972681052e+01 7.823752976314e-09 -7.404725892217e-12 0.000000000000e+00 
2.000000000000e+00 3.023972765740e+01 6.813914904234e-09 -1.714891865385e-11 0.000000000000e+00 
3.000000000000e+00 3.023974171956e+01 5.250881053728e-09 -2.517895140508e-11 0.000000000000e+00 
4.000000000000e+00 3.023974429717e+01 3.306562950261e-08 -5.068611155508e-11 0.000000000000e+00 
5.000000000000e+00 3.023974535633e+01 3.921609371880e-08 -9.880410952927e-11 0.000000000000e+00 
6.000000000000e+00 3.023975016785e+01 1.998019138058e-08 -1.382110062777e-10 0.000000000000e+00 
7.000000000000e+00 3.023975698162e+01 9.294429860550e-09 -1.576991052508e-10 0.000000000000e+00 
8.000000000000e+00 3.024064688686e+01 4.133995091410e-10 -1.641619112436e-10 0.000000000000e+00 
9.000000000000e+00 3.024084914569e+01 9.146237458470e-09 -1.705334647101e-10 0.000000000000e+00 
1.000000000000e+01 3.024085745825e+01 9.371813361688e-09 -1.828751299922e-10 0.000000000000e+00 
1.100000000000e+01 3.024099681430e+01 2.586527170451e-08 -2.063611444002e-10 0.000000000000e+00 
1.200000000000e+01 3.024100047800e+01 2.651619691628e-08 -2.412770815130e-10 0.000000000000e+00 
1.300000000000e+01 3.024108894303e+01 1.110232724475e-08 -2.663540650599e-10 0.000000000000e+00 
1.400000000000e+01 3.024110042013e+01 5.722063171389e-07 -6.551858342638e-10 0.000000000000e+00 
1.500000000000e+01 3.024110118441e+01 5.693776696791e-07 -1.416207093706e-09 0.000000000000e+00 
1.600000000000e+01 3.024120663674e+01 2.089649664743e-07 -1.935110397885e-09 0.000000000000e+00 
1.700000000000e+01 3.024121089628e+01 2.258643354266e-07 -2.224987393088e-09 0.000000000000e+00 
1.800000000000e+01 3.024125200166e+01 2.603420074793e-07 -2.549118163384e-09 0.000000000000e+00 
1.900000000000e+01 3.024125677689e+01 2.554973545289e-07 -2.893007612763e-09 0.000000000000e+00 
2.000000000000e+01 3.024132321773e+01 2.043302293436e-08 -3.076948835195e-09 0.000000000000e+00 
2.100000000000e+01 3.024229525105e+01 5.964089101711e-09 -3.094542909884e-09 0.000000000000e+00 
2.200000000000e+01 3.024257175212e+01 6.504429100594e-08 -3.141885820067e-09 0.000000000000e+00 
2.300000000000e+01 3.024259361632e+01 9.734485745972e-08 -3.250160372924e-09 0.000000000000e+00 
2.400000000000e+01 3.024263081558e+01 5.571399900949e-08 -3.352215883051e-09 0.000000000000e+00 
2.500000000000e+01 3.024270568881e+01 1.519182980174e-07 -3.490651668838e-09 0.000000000000e+00 
2.600000000000e+01 3.024271687289e+01 4.587345550818e-07 -3.897821592312e-09 0.000000000000e+00 
2.700000000000e+01 3.024272222574e+01 7.424264778861e-07 -4.698711888611e-09 0.000000000000e+00 
2.800000000000e+01 3.024272739135e+01 4.182003154937e-07 -5.472564520297e-09 0.000000000000e+00 
2.900000000000e+01 3.024448374454e+01 7.503493797265e-09 -5.756411131822e-09 0.000000000000e+00 
3.000000000000e+01 3.024487239618e+01 1.229175101029e-08 -5.761413637708e-09 0.000000000000e+00 
