VARIABLES = "X","Y","Z",VELOCITY1_X,VELOCITY1_Y,VELOCITY1_Z
ZONE T="0.000000000000e+00s", 
9.890000000000e+02 0.000000000000e+00 5.000000000000e-01 0.000000000000e+00 0.000000000000e+00 0.000000000000e+00
9.900000000000e+02 0.000000000000e+00 5.000000000000e-01 0.000000000000e+00 0.000000000000e+00 0.000000000000e+00
9.890000000000e+02 0.000000000000e+00 1.500000000000e+00 0.000000000000e+00 0.000000000000e+00 0.000000000000e+00
9.900000000000e+02 0.000000000000e+00 1.500000000000e+00 0.000000000000e+00 0.000000000000e+00 0.000000000000e+00
9.890000000000e+02 0.000000000000e+00 2.500000000000e+00 0.000000000000e+00 0.000000000000e+00 0.000000000000e+00
9.900000000000e+02 0.000000000000e+00 2.500000000000e+00 0.000000000000e+00 0.000000000000e+00 0.000000000000e+00
9.890000000000e+02 0.000000000000e+00 3.500000000000e+00 0.000000000000e+00 0.000000000000e+00 0.000000000000e+00
9.900000000000e+02 0.000000000000e+00 3.500000000000e+00 0.000000000000e+00 0.000000000000e+00 0.000000000000e+00
9.890000000000e+02 0.000000000000e+00 4.500000000000e+00 0.000000000000e+00 0.000000000000e+00 0.000000000000e+00
9.900000000000e+02 0.000000000000e+00 4.500000000000e+00 0.000000000000e+00 0.000000000000e+00 0.000000000000e+00
9.890000000000e+02 0.000000000000e+00 5.500000000000e+00 0.000000000000e+00 0.000000000000e+00 0.000000000000e+00
9.900000000000e+02 0.000000000000e+00 5.500000000000e+00 0.000000000000e+00 0.000000000000e+00 0.000000000000e+00
9.890000000000e+02 0.000000000000e+00 6.500000000000e+00 0.000000000000e+00 0.000000000000e+00 0.000000000000e+00
9.900000000000e+02 0.000000000000e+00 6.500000000000e+00 0.000000000000e+00 0.000000000000e+00 0.000000000000e+00
9.890000000000e+02 0.000000000000e+00 7.500000000000e+00 0.000000000000e+00 0.000000000000e+00 0.000000000000e+00
9.900000000000e+02 0.000000000000e+00 7.500000000000e+00 0.000000000000e+00 0.000000000000e+00 0.000000000000e+00
9.890000000000e+02 0.000000000000e+00 8.500000000000e+00 0.000000000000e+00 0.000000000000e+00 0.000000000000e+00
9.900000000000e+02 0.000000000000e+00 8.500000000000e+00 0.000000000000e+00 0.000000000000e+00 0.000000000000e+00
9.890000000000e+02 0.000000000000e+00 9.500000000000e+00 0.000000000000e+00 0.000000000000e+00 0.000000000000e+00
9.900000000000e+02 0.000000000000e+00 9.500000000000e+00 0.000000000000e+00 0.000000000000e+00 0.000000000000e+00
9.890000000000e+02 0.000000000000e+00 1.050000000000e+01 0.000000000000e+00 0.000000000000e+00 0.000000000000e+00
9.900000000000e+02 0.000000000000e+00 1.050000000000e+01 0.000000000000e+00 0.000000000000e+00 0.000000000000e+00
9.890000000000e+02 0.000000000000e+00 1.150000000000e+01 0.000000000000e+00 0.000000000000e+00 0.000000000000e+00
9.900000000000e+02 0.000000000000e+00 1.150000000000e+01 0.000000000000e+00 0.000000000000e+00 0.000000000000e+00
9.890000000000e+02 0.000000000000e+00 1.250000000000e+01 0.000000000000e+00 0.000000000000e+00 0.000000000000e+00
9.900000000000e+02 0.000000000000e+00 1.250000000000e+01 0.000000000000e+00 0.000000000000e+00 0.000000000000e+00
9.890000000000e+02 0.000000000000e+00 1.350000000000e+01 0.000000000000e+00 0.000000000000e+00 0.000000000000e+00
9.900000000000e+02 0.000000000000e+00 1.350000000000e+01 0.000000000000e+00 0.000000000000e+00 0.000000000000e+00
9.890000000000e+02 0.000000000000e+00 1.450000000000e+01 0.000000000000e+00 0.000000000000e+00 0.000000000000e+00
9.900000000000e+02 0.000000000000e+00 1.450000000000e+01 0.000000000000e+00 0.000000000000e+00 0.000000000000e+00
9.890000000000e+02 0.000000000000e+00 1.550000000000e+01 0.000000000000e+00 0.000000000000e+00 0.000000000000e+00
9.900000000000e+02 0.000000000000e+00 1.550000000000e+01 0.000000000000e+00 0.000000000000e+00 0.000000000000e+00
9.890000000000e+02 0.000000000000e+00 1.650000000000e+01 0.000000000000e+00 0.000000000000e+00 0.000000000000e+00
9.900000000000e+02 0.000000000000e+00 1.650000000000e+01 0.000000000000e+00 0.000000000000e+00 0.000000000000e+00
9.890000000000e+02 0.000000000000e+00 1.750000000000e+01 0.000000000000e+00 0.000000000000e+00 0.000000000000e+00
9.900000000000e+02 0.000000000000e+00 1.750000000000e+01 0.000000000000e+00 0.000000000000e+00 0.000000000000e+00
9.890000000000e+02 0.000000000000e+00 1.850000000000e+01 0.000000000000e+00 0.000000000000e+00 0.000000000000e+00
9.900000000000e+02 0.000000000000e+00 1.850000000000e+01 0.000000000000e+00 0.000000000000e+00 0.000000000000e+00
9.890000000000e+02 0.000000000000e+00 1.950000000000e+01 0.000000000000e+00 0.000000000000e+00 0.000000000000e+00
9.900000000000e+02 0.000000000000e+00 1.950000000000e+01 0.000000000000e+00 0.000000000000e+00 0.000000000000e+00
9.890000000000e+02 0.000000000000e+00 2.050000000000e+01 0.000000000000e+00 0.000000000000e+00 0.000000000000e+00
9.900000000000e+02 0.000000000000e+00 2.050000000000e+01 0.000000000000e+00 0.000000000000e+00 0.000000000000e+00
9.890000000000e+02 0.000000000000e+00 2.150000000000e+01 0.000000000000e+00 0.000000000000e+00 0.000000000000e+00
9.900000000000e+02 0.000000000000e+00 2.150000000000e+01 0.000000000000e+00 0.000000000000e+00 0.000000000000e+00
9.890000000000e+02 0.000000000000e+00 2.250000000000e+01 0.000000000000e+00 0.000000000000e+00 0.000000000000e+00
9.900000000000e+02 0.000000000000e+00 2.250000000000e+01 0.000000000000e+00 0.000000000000e+00 0.000000000000e+00
9.890000000000e+02 0.000000000000e+00 2.350000000000e+01 0.000000000000e+00 0.000000000000e+00 0.000000000000e+00
9.900000000000e+02 0.000000000000e+00 2.350000000000e+01 0.000000000000e+00 0.000000000000e+00 0.000000000000e+00
9.890000000000e+02 0.000000000000e+00 2.450000000000e+01 0.000000000000e+00 0.000000000000e+00 0.000000000000e+00
9.900000000000e+02 0.000000000000e+00 2.450000000000e+01 0.000000000000e+00 0.000000000000e+00 0.000000000000e+00
9.890000000000e+02 0.000000000000e+00 2.550000000000e+01 0.000000000000e+00 0.000000000000e+00 0.000000000000e+00
9.900000000000e+02 0.000000000000e+00 2.550000000000e+01 0.000000000000e+00 0.000000000000e+00 0.000000000000e+00
9.890000000000e+02 0.000000000000e+00 2.650000000000e+01 0.000000000000e+00 0.000000000000e+00 0.000000000000e+00
9.900000000000e+02 0.000000000000e+00 2.650000000000e+01 0.000000000000e+00 0.000000000000e+00 0.000000000000e+00
9.890000000000e+02 0.000000000000e+00 2.750000000000e+01 0.000000000000e+00 0.000000000000e+00 0.000000000000e+00
9.900000000000e+02 0.000000000000e+00 2.750000000000e+01 0.000000000000e+00 0.000000000000e+00 0.000000000000e+00
9.890000000000e+02 0.000000000000e+00 2.850000000000e+01 0.000000000000e+00 0.000000000000e+00 0.000000000000e+00
9.900000000000e+02 0.000000000000e+00 2.850000000000e+01 0.000000000000e+00 0.000000000000e+00 0.000000000000e+00
9.890000000000e+02 0.000000000000e+00 2.950000000000e+01 0.000000000000e+00 0.000000000000e+00 0.000000000000e+00
9.900000000000e+02 0.000000000000e+00 2.950000000000e+01 0.000000000000e+00 0.000000000000e+00 0.000000000000e+00
VARIABLES = "X","Y","Z",VELOCITY1_X,VELOCITY1_Y,VELOCITY1_Z
ZONE T="1.797693134862e+308s", 
9.890000000000e+02 0.000000000000e+00 5.000000000000e-01 4.188881373844e-09 -3.673647994356e-13 0.000000000000e+00
9.900000000000e+02 0.000000000000e+00 5.000000000000e-01 4.189557377998e-09 -3.343047515916e-13 0.000000000000e+00
9.890000000000e+02 0.000000000000e+00 1.500000000000e+00 1.568468690727e-08 -2.110682402358e-12 0.000000000000e+00
9.900000000000e+02 0.000000000000e+00 1.500000000000e+00 1.568721889292e-08 -1.920670026738e-12 0.000000000000e+00
9.890000000000e+02 0.000000000000e+00 2.500000000000e+00 1.623816733900e-09 -3.629601864117e-12 0.000000000000e+00
9.900000000000e+02 0.000000000000e+00 2.500000000000e+00 1.624079168956e-09 -3.302857574939e-12 0.000000000000e+00
9.890000000000e+02 0.000000000000e+00 3.500000000000e+00 1.171684619211e-08 -4.808615540863e-12 0.000000000000e+00
9.900000000000e+02 0.000000000000e+00 3.500000000000e+00 1.171875199975e-08 -4.375752198299e-12 0.000000000000e+00
9.890000000000e+02 0.000000000000e+00 4.500000000000e+00 7.229577471375e-08 -1.224261697640e-11 0.000000000000e+00
9.900000000000e+02 0.000000000000e+00 4.500000000000e+00 7.230754780193e-08 -1.114107392893e-11 0.000000000000e+00
9.890000000000e+02 0.000000000000e+00 5.500000000000e+00 2.734490550598e-08 -2.106349786811e-11 0.000000000000e+00
9.900000000000e+02 0.000000000000e+00 5.500000000000e+00 2.734936185054e-08 -1.916866349918e-11 0.000000000000e+00
9.890000000000e+02 0.000000000000e+00 6.500000000000e+00 2.342345598716e-08 -2.556941985472e-11 0.000000000000e+00
9.900000000000e+02 0.000000000000e+00 6.500000000000e+00 2.342728330270e-08 -2.326916290093e-11 0.000000000000e+00
9.890000000000e+02 0.000000000000e+00 7.500000000000e+00 1.942925991372e-10 -2.767284380678e-11 0.000000000000e+00
9.900000000000e+02 0.000000000000e+00 7.500000000000e+00 1.943260912373e-10 -2.518366567513e-11 0.000000000000e+00
9.890000000000e+02 0.000000000000e+00 8.500000000000e+00 8.677539562448e-10 -2.781026272600e-11 0.000000000000e+00
9.900000000000e+02 0.000000000000e+00 8.500000000000e+00 8.679624010012e-10 -2.530914451453e-11 0.000000000000e+00
9.890000000000e+02 0.000000000000e+00 9.500000000000e+00 2.273771079490e-08 -3.107310695336e-11 0.000000000000e+00
9.900000000000e+02 0.000000000000e+00 9.500000000000e+00 2.274351392160e-08 -2.828982587270e-11 0.000000000000e+00
9.890000000000e+02 0.000000000000e+00 1.050000000000e+01 1.452719930137e-09 -3.442778554110e-11 0.000000000000e+00
9.900000000000e+02 0.000000000000e+00 1.050000000000e+01 1.453094526855e-09 -3.135458295184e-11 0.000000000000e+00
9.890000000000e+02 0.000000000000e+00 1.150000000000e+01 6.545474093546e-08 -4.430331632949e-11 0.000000000000e+00
9.900000000000e+02 0.000000000000e+00 1.150000000000e+01 6.547259180480e-08 -4.038490048669e-11 0.000000000000e+00
9.890000000000e+02 0.000000000000e+00 1.250000000000e+01 3.140012794014e-09 -5.445035389065e-11 0.000000000000e+00
9.900000000000e+02 0.000000000000e+00 1.250000000000e+01 3.140877404376e-09 -4.966393159336e-11 0.000000000000e+00
9.890000000000e+02 0.000000000000e+00 1.350000000000e+01 2.562180557117e-08 -5.898628239001e-11 0.000000000000e+00
9.900000000000e+02 0.000000000000e+00 1.350000000000e+01 2.562928690755e-08 -5.381847402166e-11 0.000000000000e+00
9.890000000000e+02 0.000000000000e+00 1.450000000000e+01 1.457227365258e-06 -2.948612878933e-10 0.000000000000e+00
9.900000000000e+02 0.000000000000e+00 1.450000000000e+01 1.457656304430e-06 -2.699123130546e-10 0.000000000000e+00
9.890000000000e+02 0.000000000000e+00 1.550000000000e+01 1.830140233593e-08 -5.298773410957e-10 0.000000000000e+00
9.900000000000e+02 0.000000000000e+00 1.550000000000e+01 1.830691352225e-08 -4.852329761197e-10 0.000000000000e+00
9.890000000000e+02 0.000000000000e+00 1.650000000000e+01 5.245164321640e-07 -6.324385506706e-10 0.000000000000e+00
9.900000000000e+02 0.000000000000e+00 1.650000000000e+01 5.247010902232e-07 -5.799031665339e-10 0.000000000000e+00
9.890000000000e+02 0.000000000000e+00 1.750000000000e+01 6.225534145118e-08 -7.441109668645e-10 0.000000000000e+00
9.900000000000e+02 0.000000000000e+00 1.750000000000e+01 6.227760698909e-08 -6.830203502675e-10 0.000000000000e+00
9.890000000000e+02 0.000000000000e+00 1.850000000000e+01 6.147468493238e-07 -8.828232503295e-10 0.000000000000e+00
9.900000000000e+02 0.000000000000e+00 1.850000000000e+01 6.149825978483e-07 -8.116964600576e-10 0.000000000000e+00
9.890000000000e+02 0.000000000000e+00 1.950000000000e+01 4.972510836062e-08 -1.020244234366e-09 0.000000000000e+00
9.900000000000e+02 0.000000000000e+00 1.950000000000e+01 4.974467451090e-08 -9.392662780854e-10 0.000000000000e+00
9.890000000000e+02 0.000000000000e+00 2.050000000000e+01 3.443160521391e-09 -1.032801860573e-09 0.000000000000e+00
9.900000000000e+02 0.000000000000e+00 2.050000000000e+01 3.445029538973e-09 -9.510498735128e-10 0.000000000000e+00
9.890000000000e+02 0.000000000000e+00 2.150000000000e+01 1.239929301857e-08 -1.043228051124e-09 0.000000000000e+00
9.900000000000e+02 0.000000000000e+00 2.150000000000e+01 1.241564546116e-08 -9.613251395500e-10 0.000000000000e+00
9.890000000000e+02 0.000000000000e+00 2.250000000000e+01 1.621444090164e-07 -1.178321490387e-09 0.000000000000e+00
9.900000000000e+02 0.000000000000e+00 2.250000000000e+01 1.623932135304e-07 -1.095163376029e-09 0.000000000000e+00
9.890000000000e+02 0.000000000000e+00 2.350000000000e+01 9.924023496636e-08 -1.383644782345e-09 0.000000000000e+00
9.900000000000e+02 0.000000000000e+00 2.350000000000e+01 9.939539354735e-08 -1.298899734700e-09 0.000000000000e+00
9.890000000000e+02 0.000000000000e+00 2.450000000000e+01 5.045792232491e-08 -1.505021371796e-09 0.000000000000e+00
9.900000000000e+02 0.000000000000e+00 2.450000000000e+01 5.054014843143e-08 -1.419985765686e-09 0.000000000000e+00
9.890000000000e+02 0.000000000000e+00 2.550000000000e+01 3.585258657897e-07 -1.859065848627e-09 0.000000000000e+00
9.900000000000e+02 0.000000000000e+00 2.550000000000e+01 3.591523590595e-07 -1.777553903921e-09 0.000000000000e+00
9.890000000000e+02 0.000000000000e+00 2.650000000000e+01 8.768592211277e-07 -2.939147544577e-09 0.000000000000e+00
9.900000000000e+02 0.000000000000e+00 2.650000000000e+01 8.784094952087e-07 -2.870985549691e-09 0.000000000000e+00
9.890000000000e+02 0.000000000000e+00 2.750000000000e+01 1.122717711206e-06 -4.696015758056e-09 0.000000000000e+00
9.900000000000e+02 0.000000000000e+00 2.750000000000e+01 1.124716097434e-06 -4.652753458878e-09 0.000000000000e+00
9.890000000000e+02 0.000000000000e+00 2.850000000000e+01 3.659569988387e-09 -5.690148107809e-09 0.000000000000e+00
9.900000000000e+02 0.000000000000e+00 2.850000000000e+01 3.667696493484e-09 -5.663172872270e-09 0.000000000000e+00
9.890000000000e+02 0.000000000000e+00 2.950000000000e+01 1.667007852495e-08 -5.732664837602e-09 0.000000000000e+00
9.900000000000e+02 0.000000000000e+00 2.950000000000e+01 1.676388840284e-08 -5.719862706870e-09 0.000000000000e+00
