 TITLE = "Profiles along polylines"
 VARIABLES = "DIST" "HEAD" "VELOCITY_X1" "VELOCITY_Y1" "VELOCITY_Z1" 
 ZONE T="TIME=0.000000000000e+00"
0.000000000000e+00 3.000000000000e+01 0.000000000000e+00 0.000000000000e+00 0.000000000000e+00 
1.000000000000e+00 3.000000000000e+01 0.000000000000e+00 0.000000000000e+00 0.000000000000e+00 
2.000000000000e+00 3.000000000000e+01 0.000000000000e+00 0.000000000000e+00 0.000000000000e+00 
3.000000000000e+00 3.000000000000e+01 0.000000000000e+00 0.000000000000e+00 0.000000000000e+00 
4.000000000000e+00 3.000000000000e+01 0.000000000000e+00 0.000000000000e+00 0.000000000000e+00 
5.000000000000e+00 3.000000000000e+01 0.000000000000e+00 0.000000000000e+00 0.000000000000e+00 
6.000000000000e+00 3.000000000000e+01 0.000000000000e+00 0.000000000000e+00 0.000000000000e+00 
7.000000000000e+00 3.000000000000e+01 0.000000000000e+00 0.000000000000e+00 0.000000000000e+00 
8.000000000000e+00 3.000000000000e+01 0.000000000000e+00 0.000000000000e+00 0.000000000000e+00 
9.000000000000e+00 3.000000000000e+01 0.000000000000e+00 0.000000000000e+00 0.000000000000e+00 
1.000000000000e+01 3.000000000000e+01 0.000000000000e+00 0.000000000000e+00 0.000000000000e+00 
1.100000000000e+01 3.000000000000e+01 0.000000000000e+00 0.000000000000e+00 0.000000000000e+00 
1.200000000000e+01 3.000000000000e+01 0.000000000000e+00 0.000000000000e+00 0.000000000000e+00 
1.300000000000e+01 3.000000000000e+01 0.000000000000e+00 0.000000000000e+00 0.000000000000e+00 
1.400000000000e+01 3.000000000000e+01 0.000000000000e+00 0.000000000000e+00 0.000000000000e+00 
1.500000000000e+01 3.000000000000e+01 0.000000000000e+00 0.000000000000e+00 0.000000000000e+00 
1.600000000000e+01 3.000000000000e+01 0.000000000000e+00 0.000000000000e+00 0.000000000000e+00 
1.700000000000e+01 3.000000000000e+01 0.000000000000e+00 0.000000000000e+00 0.000000000000e+00 
1.800000000000e+01 3.000000000000e+01 0.000000000000e+00 0.000000000000e+00 0.000000000000e+00 
1.900000000000e+01 3.000000000000e+01 0.000000000000e+00 0.000000000000e+00 0.000000000000e+00 
2.000000000000e+01 3.000000000000e+01 0.000000000000e+00 0.000000000000e+00 0.000000000000e+00 
2.100000000000e+01 3.000000000000e+01 0.000000000000e+00 0.000000000000e+00 0.000000000000e+00 
2.200000000000e+01 3.000000000000e+01 0.000000000000e+00 0.000000000000e+00 0.000000000000e+00 
2.300000000000e+01 3.000000000000e+01 0.000000000000e+00 0.000000000000e+00 0.000000000000e+00 
2.400000000000e+01 3.000000000000e+01 0.000000000000e+00 0.000000000000e+00 0.000000000000e+00 
2.500000000000e+01 3.000000000000e+01 0.000000000000e+00 0.000000000000e+00 0.000000000000e+00 
2.600000000000e+01 3.000000000000e+01 0.000000000000e+00 0.000000000000e+00 0.000000000000e+00 
2.700000000000e+01 3.000000000000e+01 0.000000000000e+00 0.000000000000e+00 0.000000000000e+00 
2.800000000000e+01 3.000000000000e+01 0.000000000000e+00 0.000000000000e+00 0.000000000000e+00 
2.900000000000e+01 3.000000000000e+01 0.000000000000e+00 0.000000000000e+00 0.000000000000e+00 
3.000000000000e+01 3.000000000000e+01 0.000000000000e+00 0.000000000000e+00 0.000000000000e+00 
 TITLE = "Profiles along polylines"
 VARIABLES = "DIST" "HEAD" "VELOCITY_X1" "VELOCITY_Y1" "VELOCITY_Z1" 
 ZONE T="TIME=1.797693134862e+308"
0.000000000000e+00 3.054927043016e+01 2.198641475191e-10 -2.198543689685e-12 0.000000000000e+00 
1.000000000000e+00 3.054927098285e+01 5.215549933613e-10 -7.414524168657e-12 0.000000000000e+00 
2.000000000000e+00 3.054927183083e+01 4.542366783042e-10 -1.717453593636e-11 0.000000000000e+00 
3.000000000000e+00 3.054928591565e+01 3.500394183995e-10 -2.521909466201e-11 0.000000000000e+00 
4.000000000000e+00 3.054928849734e+01 2.204254230593e-09 -5.076719379733e-11 0.000000000000e+00 
5.000000000000e+00 3.054928955820e+01 2.614263382024e-09 -9.896104317961e-11 0.000000000000e+00 
6.000000000000e+00 3.054929437731e+01 1.331939603243e-09 -1.384299304690e-10 0.000000000000e+00 
7.000000000000e+00 3.054930120190e+01 6.195942349531e-10 -1.579494317596e-10 0.000000000000e+00 
8.000000000000e+00 3.055019251813e+01 2.755725632053e-11 -1.644219902197e-10 0.000000000000e+00 
9.000000000000e+00 3.055039509714e+01 6.096824240879e-10 -1.707941075758e-10 0.000000000000e+00 
1.000000000000e+01 3.055040342198e+01 6.247188348208e-10 -1.831391033783e-10 0.000000000000e+00 
1.100000000000e+01 3.055054297476e+01 1.724151628695e-09 -2.066315503770e-10 0.000000000000e+00 
1.200000000000e+01 3.055054664294e+01 1.767541712233e-09 -2.415521307561e-10 0.000000000000e+00 
1.300000000000e+01 3.055063520235e+01 7.400676776468e-10 -2.666309019656e-10 0.000000000000e+00 
1.400000000000e+01 3.055064669108e+01 3.814254802427e-08 -6.554488145827e-10 0.000000000000e+00 
1.500000000000e+01 3.055064745554e+01 3.795397805456e-08 -1.416511378992e-09 0.000000000000e+00 
1.600000000000e+01 3.055075292901e+01 1.392932918935e-08 -1.935447735913e-09 0.000000000000e+00 
1.700000000000e+01 3.055075718919e+01 1.505581647222e-08 -2.225332478520e-09 0.000000000000e+00 
1.800000000000e+01 3.055079830107e+01 1.735405834560e-08 -2.549496412591e-09 0.000000000000e+00 
1.900000000000e+01 3.055080307697e+01 1.703111630368e-08 -2.893388287366e-09 0.000000000000e+00 
2.000000000000e+01 3.055086952606e+01 1.362036631691e-09 -3.077335575808e-09 0.000000000000e+00 
2.100000000000e+01 3.055184168302e+01 3.975574993263e-10 -3.094933953267e-09 0.000000000000e+00 
2.200000000000e+01 3.055211821881e+01 4.335750290964e-09 -3.142274271732e-09 0.000000000000e+00 
2.300000000000e+01 3.055214008567e+01 6.488851363611e-09 -3.250528304488e-09 0.000000000000e+00 
2.400000000000e+01 3.055217728883e+01 3.713804727645e-09 -3.352566608173e-09 0.000000000000e+00 
2.500000000000e+01 3.055225216987e+01 1.012662575595e-08 -3.490992798849e-09 0.000000000000e+00 
2.600000000000e+01 3.055226335498e+01 3.057849888114e-08 -3.898062172765e-09 0.000000000000e+00 
2.700000000000e+01 3.055226870802e+01 4.948893588489e-08 -4.698836569094e-09 0.000000000000e+00 
2.800000000000e+01 3.055227387372e+01 2.787655091336e-08 -5.472614404562e-09 0.000000000000e+00 
2.900000000000e+01 3.055403022778e+01 5.001705751070e-10 -5.756413294687e-09 0.000000000000e+00 
3.000000000000e+01 3.055441887952e+01 8.193481812887e-10 -5.761415132926e-09 0.000000000000e+00 
