 TITLE = "Profiles along polylines"
 VARIABLES = "DIST" "HEAD" "VELOCITY_X1" "VELOCITY_Y1" "VELOCITY_Z1" 
 ZONE T="TIME=0.000000000000e+00"
0.000000000000e+00 3.000000000000e+01 0.000000000000e+00 0.000000000000e+00 0.000000000000e+00 
1.000000000000e+00 3.000000000000e+01 0.000000000000e+00 0.000000000000e+00 0.000000000000e+00 
2.000000000000e+00 3.000000000000e+01 0.000000000000e+00 0.000000000000e+00 0.000000000000e+00 
3.000000000000e+00 3.000000000000e+01 0.000000000000e+00 0.000000000000e+00 0.000000000000e+00 
4.000000000000e+00 3.000000000000e+01 0.000000000000e+00 0.000000000000e+00 0.000000000000e+00 
5.000000000000e+00 3.000000000000e+01 0.000000000000e+00 0.000000000000e+00 0.000000000000e+00 
6.000000000000e+00 3.000000000000e+01 0.000000000000e+00 0.000000000000e+00 0.000000000000e+00 
7.000000000000e+00 3.000000000000e+01 0.000000000000e+00 0.000000000000e+00 0.000000000000e+00 
8.000000000000e+00 3.000000000000e+01 0.000000000000e+00 0.000000000000e+00 0.000000000000e+00 
9.000000000000e+00 3.000000000000e+01 0.000000000000e+00 0.000000000000e+00 0.000000000000e+00 
1.000000000000e+01 3.000000000000e+01 0.000000000000e+00 0.000000000000e+00 0.000000000000e+00 
1.100000000000e+01 3.000000000000e+01 0.000000000000e+00 0.000000000000e+00 0.000000000000e+00 
1.200000000000e+01 3.000000000000e+01 0.000000000000e+00 0.000000000000e+00 0.000000000000e+00 
1.300000000000e+01 3.000000000000e+01 0.000000000000e+00 0.000000000000e+00 0.000000000000e+00 
1.400000000000e+01 3.000000000000e+01 0.000000000000e+00 0.000000000000e+00 0.000000000000e+00 
1.500000000000e+01 3.000000000000e+01 0.000000000000e+00 0.000000000000e+00 0.000000000000e+00 
1.600000000000e+01 3.000000000000e+01 0.000000000000e+00 0.000000000000e+00 0.000000000000e+00 
1.700000000000e+01 3.000000000000e+01 0.000000000000e+00 0.000000000000e+00 0.000000000000e+00 
1.800000000000e+01 3.000000000000e+01 0.000000000000e+00 0.000000000000e+00 0.000000000000e+00 
1.900000000000e+01 3.000000000000e+01 0.000000000000e+00 0.000000000000e+00 0.000000000000e+00 
2.000000000000e+01 3.000000000000e+01 0.000000000000e+00 0.000000000000e+00 0.000000000000e+00 
2.100000000000e+01 3.000000000000e+01 0.000000000000e+00 0.000000000000e+00 0.000000000000e+00 
2.200000000000e+01 3.000000000000e+01 0.000000000000e+00 0.000000000000e+00 0.000000000000e+00 
2.300000000000e+01 3.000000000000e+01 0.000000000000e+00 0.000000000000e+00 0.000000000000e+00 
2.400000000000e+01 3.000000000000e+01 0.000000000000e+00 0.000000000000e+00 0.000000000000e+00 
2.500000000000e+01 3.000000000000e+01 0.000000000000e+00 0.000000000000e+00 0.000000000000e+00 
2.600000000000e+01 3.000000000000e+01 0.000000000000e+00 0.000000000000e+00 0.000000000000e+00 
2.700000000000e+01 3.000000000000e+01 0.000000000000e+00 0.000000000000e+00 0.000000000000e+00 
2.800000000000e+01 3.000000000000e+01 0.000000000000e+00 0.000000000000e+00 0.000000000000e+00 
2.900000000000e+01 3.000000000000e+01 0.000000000000e+00 0.000000000000e+00 0.000000000000e+00 
3.000000000000e+01 3.000000000000e+01 0.000000000000e+00 0.000000000000e+00 0.000000000000e+00 
 TITLE = "Profiles along polylines"
 VARIABLES = "DIST" "HEAD" "VELOCITY_X1" "VELOCITY_Y1" "VELOCITY_Z1" 
 ZONE T="TIME=1.797693134862e+308"
0.000000000000e+00 3.001053680901e+01 4.189215640979e-09 -3.380513402703e-13 0.000000000000e+00 
1.000000000000e+00 3.001053689399e+01 9.937590110696e-09 -1.140119644077e-12 0.000000000000e+00 
2.000000000000e+00 3.001053702438e+01 8.655016447855e-09 -2.641030732211e-12 0.000000000000e+00 
3.000000000000e+00 3.001053919034e+01 6.670994366198e-09 -3.882328216788e-12 0.000000000000e+00 
4.000000000000e+00 3.001053958810e+01 4.200986042859e-08 -7.845317820969e-12 0.000000000000e+00 
5.000000000000e+00 3.001053975223e+01 4.982478022654e-08 -1.532461154363e-11 0.000000000000e+00 
6.000000000000e+00 3.001054049888e+01 2.538696437120e-08 -2.145656827937e-11 0.000000000000e+00 
7.000000000000e+00 3.001054155705e+01 1.181072174453e-08 -2.449773468912e-11 0.000000000000e+00 
8.000000000000e+00 3.001067983608e+01 5.320493939506e-10 -2.552912504080e-11 0.000000000000e+00 
9.000000000000e+00 3.001071131506e+01 1.180519022451e-08 -2.709903047208e-11 0.000000000000e+00 
1.000000000000e+01 3.001071266129e+01 1.209782431928e-08 -3.015447879677e-11 0.000000000000e+00 
1.100000000000e+01 3.001073602239e+01 3.345943280913e-08 -3.626706972169e-11 0.000000000000e+00 
1.200000000000e+01 3.001073669140e+01 3.430353031290e-08 -4.551999429230e-11 0.000000000000e+00 
1.300000000000e+01 3.001075384422e+01 1.438483663412e-08 -5.230851807932e-11 0.000000000000e+00 
1.400000000000e+01 3.001075612524e+01 7.415345768833e-07 -1.635939296138e-10 0.000000000000e+00 
1.500000000000e+01 3.001075632636e+01 7.378816223481e-07 -3.815752792293e-10 0.000000000000e+00 
1.600000000000e+01 3.001078512175e+01 2.714734567663e-07 -5.381680200292e-10 0.000000000000e+00 
1.700000000000e+01 3.001078632495e+01 2.934576863751e-07 -6.380257887982e-10 0.000000000000e+00 
1.800000000000e+01 3.001079826585e+01 3.385889522000e-07 -7.550179342088e-10 0.000000000000e+00 
1.900000000000e+01 3.001079970394e+01 3.323271431030e-07 -8.843186762857e-10 0.000000000000e+00 
2.000000000000e+01 3.001082028010e+01 2.662125313403e-08 -9.546260043225e-10 0.000000000000e+00 
2.100000000000e+01 3.001112239322e+01 7.957885754712e-09 -9.657150612243e-10 0.000000000000e+00 
2.200000000000e+01 3.001120902989e+01 8.737023038713e-08 -1.037912167541e-09 0.000000000000e+00 
2.300000000000e+01 3.001121661454e+01 1.308260291492e-07 -1.206999233577e-09 0.000000000000e+00 
2.400000000000e+01 3.001123130362e+01 7.494209582371e-08 -1.369639969495e-09 0.000000000000e+00 
2.500000000000e+01 3.001126289855e+01 2.047031866065e-07 -1.608885796994e-09 0.000000000000e+00 
2.600000000000e+01 3.001126846432e+01 6.182701844079e-07 -2.333630088257e-09 0.000000000000e+00 
2.700000000000e+01 3.001127213126e+01 1.000704961726e-06 -3.769355356293e-09 0.000000000000e+00 
2.800000000000e+01 3.001127676503e+01 5.637099605225e-07 -5.163297920773e-09 0.000000000000e+00 
2.900000000000e+01 3.001300752918e+01 1.020381634118e-08 -5.694792524466e-09 0.000000000000e+00 
3.000000000000e+01 3.001339352011e+01 1.673063002706e-08 -5.721971106522e-09 0.000000000000e+00 
