 TITLE = "Profiles along polylines"
 VARIABLES = "DIST" "HEAD" "VELOCITY_X1" "VELOCITY_Y1" "VELOCITY_Z1" 
 ZONE T="TIME=0.000000000000e+00"
0.000000000000e+00 3.000000000000e+01 0.000000000000e+00 0.000000000000e+00 0.000000000000e+00 
1.000000000000e+00 3.000000000000e+01 0.000000000000e+00 0.000000000000e+00 0.000000000000e+00 
2.000000000000e+00 3.000000000000e+01 0.000000000000e+00 0.000000000000e+00 0.000000000000e+00 
3.000000000000e+00 3.000000000000e+01 0.000000000000e+00 0.000000000000e+00 0.000000000000e+00 
4.000000000000e+00 3.000000000000e+01 0.000000000000e+00 0.000000000000e+00 0.000000000000e+00 
5.000000000000e+00 3.000000000000e+01 0.000000000000e+00 0.000000000000e+00 0.000000000000e+00 
6.000000000000e+00 3.000000000000e+01 0.000000000000e+00 0.000000000000e+00 0.000000000000e+00 
7.000000000000e+00 3.000000000000e+01 0.000000000000e+00 0.000000000000e+00 0.000000000000e+00 
8.000000000000e+00 3.000000000000e+01 0.000000000000e+00 0.000000000000e+00 0.000000000000e+00 
9.000000000000e+00 3.000000000000e+01 0.000000000000e+00 0.000000000000e+00 0.000000000000e+00 
1.000000000000e+01 3.000000000000e+01 0.000000000000e+00 0.000000000000e+00 0.000000000000e+00 
1.100000000000e+01 3.000000000000e+01 0.000000000000e+00 0.000000000000e+00 0.000000000000e+00 
1.200000000000e+01 3.000000000000e+01 0.000000000000e+00 0.000000000000e+00 0.000000000000e+00 
1.300000000000e+01 3.000000000000e+01 0.000000000000e+00 0.000000000000e+00 0.000000000000e+00 
1.400000000000e+01 3.000000000000e+01 0.000000000000e+00 0.000000000000e+00 0.000000000000e+00 
1.500000000000e+01 3.000000000000e+01 0.000000000000e+00 0.000000000000e+00 0.000000000000e+00 
1.600000000000e+01 3.000000000000e+01 0.000000000000e+00 0.000000000000e+00 0.000000000000e+00 
1.700000000000e+01 3.000000000000e+01 0.000000000000e+00 0.000000000000e+00 0.000000000000e+00 
1.800000000000e+01 3.000000000000e+01 0.000000000000e+00 0.000000000000e+00 0.000000000000e+00 
1.900000000000e+01 3.000000000000e+01 0.000000000000e+00 0.000000000000e+00 0.000000000000e+00 
2.000000000000e+01 3.000000000000e+01 0.000000000000e+00 0.000000000000e+00 0.000000000000e+00 
2.100000000000e+01 3.000000000000e+01 0.000000000000e+00 0.000000000000e+00 0.000000000000e+00 
2.200000000000e+01 3.000000000000e+01 0.000000000000e+00 0.000000000000e+00 0.000000000000e+00 
2.300000000000e+01 3.000000000000e+01 0.000000000000e+00 0.000000000000e+00 0.000000000000e+00 
2.400000000000e+01 3.000000000000e+01 0.000000000000e+00 0.000000000000e+00 0.000000000000e+00 
2.500000000000e+01 3.000000000000e+01 0.000000000000e+00 0.000000000000e+00 0.000000000000e+00 
2.600000000000e+01 3.000000000000e+01 0.000000000000e+00 0.000000000000e+00 0.000000000000e+00 
2.700000000000e+01 3.000000000000e+01 0.000000000000e+00 0.000000000000e+00 0.000000000000e+00 
2.800000000000e+01 3.000000000000e+01 0.000000000000e+00 0.000000000000e+00 0.000000000000e+00 
2.900000000000e+01 3.000000000000e+01 0.000000000000e+00 0.000000000000e+00 0.000000000000e+00 
3.000000000000e+01 3.000000000000e+01 0.000000000000e+00 0.000000000000e+00 0.000000000000e+00 
 TITLE = "Profiles along polylines"
 VARIABLES = "DIST" "HEAD" "VELOCITY_X1" "VELOCITY_Y1" "VELOCITY_Z1" 
 ZONE T="TIME=1.797693134862e+308"
0.000000000000e+00 3.023078726412e+01 3.991111996436e-07 -2.451894595824e-10 0.000000000000e+00 
1.000000000000e+00 3.023078776759e+01 2.065337204529e-07 -3.720673601333e-10 0.000000000000e+00 
2.000000000000e+00 3.023081706650e+01 2.552793747612e-08 -5.146320905333e-10 0.000000000000e+00 
3.000000000000e+00 3.023082878159e+01 5.506815909722e-08 -5.641615521719e-10 0.000000000000e+00 
4.000000000000e+00 3.023083549195e+01 6.020062775822e-08 -6.350028816953e-10 0.000000000000e+00 
5.000000000000e+00 3.023084711994e+01 2.401562146474e-08 -6.867627729562e-10 0.000000000000e+00 
6.000000000000e+00 3.023170999823e+01 4.930517096050e-09 -7.045777825613e-10 0.000000000000e+00 
7.000000000000e+00 3.023177314481e+01 5.901750695277e-09 -7.112888987270e-10 0.000000000000e+00 
8.000000000000e+00 3.023199800698e+01 2.505956444315e-09 -7.165022179562e-10 0.000000000000e+00 
9.000000000000e+00 3.023224331465e+01 1.185807725735e-08 -7.254371153977e-10 0.000000000000e+00 
1.000000000000e+01 3.023227154258e+01 2.958348284194e-08 -7.512291264166e-10 0.000000000000e+00 
1.100000000000e+01 3.023228823542e+01 5.757185348390e-07 -1.128033367503e-09 0.000000000000e+00 
1.200000000000e+01 3.023228933132e+01 5.629066647965e-07 -1.836830572460e-09 0.000000000000e+00 
1.300000000000e+01 3.023243617742e+01 6.592935747621e-08 -2.228325838424e-09 0.000000000000e+00 
1.400000000000e+01 3.023245175513e+01 6.037215484269e-08 -2.307044070602e-09 0.000000000000e+00 
1.500000000000e+01 3.023417945831e+01 6.339918960233e-10 -2.345073574797e-09 0.000000000000e+00 
1.600000000000e+01 3.024691540631e+01 8.936812094209e-09 -2.351659350589e-09 0.000000000000e+00 
1.700000000000e+01 3.024702637146e+01 3.748427629523e-08 -2.383807488902e-09 0.000000000000e+00 
1.800000000000e+01 3.024706148010e+01 3.028318627428e-08 -2.430749966587e-09 0.000000000000e+00 
1.900000000000e+01 3.024767781019e+01 2.303409959286e-09 -2.453331617755e-09 0.000000000000e+00 
2.000000000000e+01 3.024926987129e+01 1.061344480550e-08 -2.462388810498e-09 0.000000000000e+00 
2.100000000000e+01 3.024937341858e+01 2.482935313608e-07 -2.644363045752e-09 0.000000000000e+00 
2.200000000000e+01 3.024937836252e+01 5.665806690274e-07 -3.217123314751e-09 0.000000000000e+00 
2.300000000000e+01 3.024938296620e+01 3.344532171440e-07 -3.850448967598e-09 0.000000000000e+00 
2.400000000000e+01 3.024965856683e+01 4.264970461973e-07 -4.385475209322e-09 0.000000000000e+00 
2.500000000000e+01 3.024966322688e+01 4.249507899664e-07 -4.984269263074e-09 0.000000000000e+00 
2.600000000000e+01 3.025013814218e+01 6.019337045847e-09 -5.287355535238e-09 0.000000000000e+00 
2.700000000000e+01 3.025175407679e+01 2.688550955865e-08 -5.310514182114e-09 0.000000000000e+00 
2.800000000000e+01 3.025184139920e+01 1.597915667180e-07 -5.441918787800e-09 0.000000000000e+00 
2.900000000000e+01 3.025185869372e+01 1.435716951023e-07 -5.655460504943e-09 0.000000000000e+00 
3.000000000000e+01 3.025211757534e+01 1.859327760864e-08 -5.756522204160e-09 0.000000000000e+00 
