 TITLE = "Profiles along polylines"
 VARIABLES = "DIST" "HEAD" "VELOCITY_X1" "VELOCITY_Y1" "VELOCITY_Z1" 
 ZONE T="TIME=0.000000000000e+00"
0.000000000000e+00 3.000000000000e+01 0.000000000000e+00 0.000000000000e+00 0.000000000000e+00 
1.000000000000e+00 3.000000000000e+01 0.000000000000e+00 0.000000000000e+00 0.000000000000e+00 
2.000000000000e+00 3.000000000000e+01 0.000000000000e+00 0.000000000000e+00 0.000000000000e+00 
3.000000000000e+00 3.000000000000e+01 0.000000000000e+00 0.000000000000e+00 0.000000000000e+00 
4.000000000000e+00 3.000000000000e+01 0.000000000000e+00 0.000000000000e+00 0.000000000000e+00 
5.000000000000e+00 3.000000000000e+01 0.000000000000e+00 0.000000000000e+00 0.000000000000e+00 
6.000000000000e+00 3.000000000000e+01 0.000000000000e+00 0.000000000000e+00 0.000000000000e+00 
7.000000000000e+00 3.000000000000e+01 0.000000000000e+00 0.000000000000e+00 0.000000000000e+00 
8.000000000000e+00 3.000000000000e+01 0.000000000000e+00 0.000000000000e+00 0.000000000000e+00 
9.000000000000e+00 3.000000000000e+01 0.000000000000e+00 0.000000000000e+00 0.000000000000e+00 
1.000000000000e+01 3.000000000000e+01 0.000000000000e+00 0.000000000000e+00 0.000000000000e+00 
1.100000000000e+01 3.000000000000e+01 0.000000000000e+00 0.000000000000e+00 0.000000000000e+00 
1.200000000000e+01 3.000000000000e+01 0.000000000000e+00 0.000000000000e+00 0.000000000000e+00 
1.300000000000e+01 3.000000000000e+01 0.000000000000e+00 0.000000000000e+00 0.000000000000e+00 
1.400000000000e+01 3.000000000000e+01 0.000000000000e+00 0.000000000000e+00 0.000000000000e+00 
1.500000000000e+01 3.000000000000e+01 0.000000000000e+00 0.000000000000e+00 0.000000000000e+00 
1.600000000000e+01 3.000000000000e+01 0.000000000000e+00 0.000000000000e+00 0.000000000000e+00 
1.700000000000e+01 3.000000000000e+01 0.000000000000e+00 0.000000000000e+00 0.000000000000e+00 
1.800000000000e+01 3.000000000000e+01 0.000000000000e+00 0.000000000000e+00 0.000000000000e+00 
1.900000000000e+01 3.000000000000e+01 0.000000000000e+00 0.000000000000e+00 0.000000000000e+00 
2.000000000000e+01 3.000000000000e+01 0.000000000000e+00 0.000000000000e+00 0.000000000000e+00 
2.100000000000e+01 3.000000000000e+01 0.000000000000e+00 0.000000000000e+00 0.000000000000e+00 
2.200000000000e+01 3.000000000000e+01 0.000000000000e+00 0.000000000000e+00 0.000000000000e+00 
2.300000000000e+01 3.000000000000e+01 0.000000000000e+00 0.000000000000e+00 0.000000000000e+00 
2.400000000000e+01 3.000000000000e+01 0.000000000000e+00 0.000000000000e+00 0.000000000000e+00 
2.500000000000e+01 3.000000000000e+01 0.000000000000e+00 0.000000000000e+00 0.000000000000e+00 
2.600000000000e+01 3.000000000000e+01 0.000000000000e+00 0.000000000000e+00 0.000000000000e+00 
2.700000000000e+01 3.000000000000e+01 0.000000000000e+00 0.000000000000e+00 0.000000000000e+00 
2.800000000000e+01 3.000000000000e+01 0.000000000000e+00 0.000000000000e+00 0.000000000000e+00 
2.900000000000e+01 3.000000000000e+01 0.000000000000e+00 0.000000000000e+00 0.000000000000e+00 
3.000000000000e+01 3.000000000000e+01 0.000000000000e+00 0.000000000000e+00 0.000000000000e+00 
 TITLE = "Profiles along polylines"
 VARIABLES = "DIST" "HEAD" "VELOCITY_X1" "VELOCITY_Y1" "VELOCITY_Z1" 
 ZONE T="TIME=1.797693134862e+308"
0.000000000000e+00 3.050622637347e+01 1.345515695261e-07 -2.690569066762e-10 0.000000000000e+00 
1.000000000000e+00 3.050622692594e+01 6.962826260536e-08 -4.082992920716e-10 0.000000000000e+00 
2.000000000000e+00 3.050625907852e+01 8.605875410609e-09 -5.647508223927e-10 0.000000000000e+00 
3.000000000000e+00 3.050627193439e+01 1.856409505380e-08 -6.190826231597e-10 0.000000000000e+00 
4.000000000000e+00 3.050627929784e+01 2.029414462276e-08 -6.967885062116e-10 0.000000000000e+00 
5.000000000000e+00 3.050629205696e+01 8.095757866651e-09 -7.535613467919e-10 0.000000000000e+00 
6.000000000000e+00 3.050723885483e+01 1.660380277869e-09 -7.730712436031e-10 0.000000000000e+00 
7.000000000000e+00 3.050730813731e+01 1.987298827232e-09 -7.803657736404e-10 0.000000000000e+00 
8.000000000000e+00 3.050755482496e+01 8.436052079663e-10 -7.860270494169e-10 0.000000000000e+00 
9.000000000000e+00 3.050782392891e+01 3.990735445949e-09 -7.956945896954e-10 0.000000000000e+00 
1.000000000000e+01 3.050785488632e+01 9.955736395745e-09 -8.235845659858e-10 0.000000000000e+00 
1.100000000000e+01 3.050787318093e+01 1.937428777109e-07 -1.230932532947e-09 0.000000000000e+00 
1.200000000000e+01 3.050787437412e+01 1.894311538713e-07 -1.997206486550e-09 0.000000000000e+00 
1.300000000000e+01 3.050803389617e+01 2.218329723407e-08 -2.420403358834e-09 0.000000000000e+00 
1.400000000000e+01 3.050805081480e+01 2.031312606789e-08 -2.505388249345e-09 0.000000000000e+00 
1.500000000000e+01 3.050992687695e+01 2.129273999527e-10 -2.546437557564e-09 0.000000000000e+00 
1.600000000000e+01 3.052375637137e+01 2.961670052602e-09 -2.552788608892e-09 0.000000000000e+00 
1.700000000000e+01 3.052387678984e+01 1.242091082925e-08 -2.583563969640e-09 0.000000000000e+00 
1.800000000000e+01 3.052391479257e+01 1.003438270505e-08 -2.628490073769e-09 0.000000000000e+00 
1.900000000000e+01 3.052458060454e+01 7.627814005424e-10 -2.650092127986e-09 0.000000000000e+00 
2.000000000000e+01 3.052630021857e+01 3.509256704842e-09 -2.658639531262e-09 0.000000000000e+00 
2.100000000000e+01 3.052641197540e+01 8.208826926403e-08 -2.829904669794e-09 0.000000000000e+00 
2.200000000000e+01 3.052641722675e+01 1.873164224900e-07 -3.368938418388e-09 0.000000000000e+00 
2.300000000000e+01 3.052642199387e+01 1.105728829405e-07 -3.964959164075e-09 0.000000000000e+00 
2.400000000000e+01 3.052670438456e+01 1.409917128597e-07 -4.468287661521e-09 0.000000000000e+00 
2.500000000000e+01 3.052670910924e+01 1.404804407401e-07 -5.031461917082e-09 0.000000000000e+00 
2.600000000000e+01 3.052718666891e+01 1.989811773520e-09 -5.316519738517e-09 0.000000000000e+00 
2.700000000000e+01 3.052881143243e+01 8.886592642111e-09 -5.338281354614e-09 0.000000000000e+00 
2.800000000000e+01 3.052889919105e+01 5.281637176411e-08 -5.461737627604e-09 0.000000000000e+00 
2.900000000000e+01 3.052891652609e+01 4.745514665951e-08 -5.662363661288e-09 0.000000000000e+00 
3.000000000000e+01 3.052917544331e+01 6.145684435960e-09 -5.757313805834e-09 0.000000000000e+00 
