VARIABLES = "X","Y","Z",VELOCITY1_X,VELOCITY1_Y,VELOCITY1_Z
ZONE T="0.000000000000e+00s", 
2.490000000000e+02 0.000000000000e+00 5.000000000000e-01 0.000000000000e+00 0.000000000000e+00 0.000000000000e+00
2.500000000000e+02 0.000000000000e+00 5.000000000000e-01 0.000000000000e+00 0.000000000000e+00 0.000000000000e+00
2.490000000000e+02 0.000000000000e+00 1.500000000000e+00 0.000000000000e+00 0.000000000000e+00 0.000000000000e+00
2.500000000000e+02 0.000000000000e+00 1.500000000000e+00 0.000000000000e+00 0.000000000000e+00 0.000000000000e+00
2.490000000000e+02 0.000000000000e+00 2.500000000000e+00 0.000000000000e+00 0.000000000000e+00 0.000000000000e+00
2.500000000000e+02 0.000000000000e+00 2.500000000000e+00 0.000000000000e+00 0.000000000000e+00 0.000000000000e+00
2.490000000000e+02 0.000000000000e+00 3.500000000000e+00 0.000000000000e+00 0.000000000000e+00 0.000000000000e+00
2.500000000000e+02 0.000000000000e+00 3.500000000000e+00 0.000000000000e+00 0.000000000000e+00 0.000000000000e+00
2.490000000000e+02 0.000000000000e+00 4.500000000000e+00 0.000000000000e+00 0.000000000000e+00 0.000000000000e+00
2.500000000000e+02 0.000000000000e+00 4.500000000000e+00 0.000000000000e+00 0.000000000000e+00 0.000000000000e+00
2.490000000000e+02 0.000000000000e+00 5.500000000000e+00 0.000000000000e+00 0.000000000000e+00 0.000000000000e+00
2.500000000000e+02 0.000000000000e+00 5.500000000000e+00 0.000000000000e+00 0.000000000000e+00 0.000000000000e+00
2.490000000000e+02 0.000000000000e+00 6.500000000000e+00 0.000000000000e+00 0.000000000000e+00 0.000000000000e+00
2.500000000000e+02 0.000000000000e+00 6.500000000000e+00 0.000000000000e+00 0.000000000000e+00 0.000000000000e+00
2.490000000000e+02 0.000000000000e+00 7.500000000000e+00 0.000000000000e+00 0.000000000000e+00 0.000000000000e+00
2.500000000000e+02 0.000000000000e+00 7.500000000000e+00 0.000000000000e+00 0.000000000000e+00 0.000000000000e+00
2.490000000000e+02 0.000000000000e+00 8.500000000000e+00 0.000000000000e+00 0.000000000000e+00 0.000000000000e+00
2.500000000000e+02 0.000000000000e+00 8.500000000000e+00 0.000000000000e+00 0.000000000000e+00 0.000000000000e+00
2.490000000000e+02 0.000000000000e+00 9.500000000000e+00 0.000000000000e+00 0.000000000000e+00 0.000000000000e+00
2.500000000000e+02 0.000000000000e+00 9.500000000000e+00 0.000000000000e+00 0.000000000000e+00 0.000000000000e+00
2.490000000000e+02 0.000000000000e+00 1.050000000000e+01 0.000000000000e+00 0.000000000000e+00 0.000000000000e+00
2.500000000000e+02 0.000000000000e+00 1.050000000000e+01 0.000000000000e+00 0.000000000000e+00 0.000000000000e+00
2.490000000000e+02 0.000000000000e+00 1.150000000000e+01 0.000000000000e+00 0.000000000000e+00 0.000000000000e+00
2.500000000000e+02 0.000000000000e+00 1.150000000000e+01 0.000000000000e+00 0.000000000000e+00 0.000000000000e+00
2.490000000000e+02 0.000000000000e+00 1.250000000000e+01 0.000000000000e+00 0.000000000000e+00 0.000000000000e+00
2.500000000000e+02 0.000000000000e+00 1.250000000000e+01 0.000000000000e+00 0.000000000000e+00 0.000000000000e+00
2.490000000000e+02 0.000000000000e+00 1.350000000000e+01 0.000000000000e+00 0.000000000000e+00 0.000000000000e+00
2.500000000000e+02 0.000000000000e+00 1.350000000000e+01 0.000000000000e+00 0.000000000000e+00 0.000000000000e+00
2.490000000000e+02 0.000000000000e+00 1.450000000000e+01 0.000000000000e+00 0.000000000000e+00 0.000000000000e+00
2.500000000000e+02 0.000000000000e+00 1.450000000000e+01 0.000000000000e+00 0.000000000000e+00 0.000000000000e+00
2.490000000000e+02 0.000000000000e+00 1.550000000000e+01 0.000000000000e+00 0.000000000000e+00 0.000000000000e+00
2.500000000000e+02 0.000000000000e+00 1.550000000000e+01 0.000000000000e+00 0.000000000000e+00 0.000000000000e+00
2.490000000000e+02 0.000000000000e+00 1.650000000000e+01 0.000000000000e+00 0.000000000000e+00 0.000000000000e+00
2.500000000000e+02 0.000000000000e+00 1.650000000000e+01 0.000000000000e+00 0.000000000000e+00 0.000000000000e+00
2.490000000000e+02 0.000000000000e+00 1.750000000000e+01 0.000000000000e+00 0.000000000000e+00 0.000000000000e+00
2.500000000000e+02 0.000000000000e+00 1.750000000000e+01 0.000000000000e+00 0.000000000000e+00 0.000000000000e+00
2.490000000000e+02 0.000000000000e+00 1.850000000000e+01 0.000000000000e+00 0.000000000000e+00 0.000000000000e+00
2.500000000000e+02 0.000000000000e+00 1.850000000000e+01 0.000000000000e+00 0.000000000000e+00 0.000000000000e+00
2.490000000000e+02 0.000000000000e+00 1.950000000000e+01 0.000000000000e+00 0.000000000000e+00 0.000000000000e+00
2.500000000000e+02 0.000000000000e+00 1.950000000000e+01 0.000000000000e+00 0.000000000000e+00 0.000000000000e+00
2.490000000000e+02 0.000000000000e+00 2.050000000000e+01 0.000000000000e+00 0.000000000000e+00 0.000000000000e+00
2.500000000000e+02 0.000000000000e+00 2.050000000000e+01 0.000000000000e+00 0.000000000000e+00 0.000000000000e+00
2.490000000000e+02 0.000000000000e+00 2.150000000000e+01 0.000000000000e+00 0.000000000000e+00 0.000000000000e+00
2.500000000000e+02 0.000000000000e+00 2.150000000000e+01 0.000000000000e+00 0.000000000000e+00 0.000000000000e+00
2.490000000000e+02 0.000000000000e+00 2.250000000000e+01 0.000000000000e+00 0.000000000000e+00 0.000000000000e+00
2.500000000000e+02 0.000000000000e+00 2.250000000000e+01 0.000000000000e+00 0.000000000000e+00 0.000000000000e+00
2.490000000000e+02 0.000000000000e+00 2.350000000000e+01 0.000000000000e+00 0.000000000000e+00 0.000000000000e+00
2.500000000000e+02 0.000000000000e+00 2.350000000000e+01 0.000000000000e+00 0.000000000000e+00 0.000000000000e+00
2.490000000000e+02 0.000000000000e+00 2.450000000000e+01 0.000000000000e+00 0.000000000000e+00 0.000000000000e+00
2.500000000000e+02 0.000000000000e+00 2.450000000000e+01 0.000000000000e+00 0.000000000000e+00 0.000000000000e+00
2.490000000000e+02 0.000000000000e+00 2.550000000000e+01 0.000000000000e+00 0.000000000000e+00 0.000000000000e+00
2.500000000000e+02 0.000000000000e+00 2.550000000000e+01 0.000000000000e+00 0.000000000000e+00 0.000000000000e+00
2.490000000000e+02 0.000000000000e+00 2.650000000000e+01 0.000000000000e+00 0.000000000000e+00 0.000000000000e+00
2.500000000000e+02 0.000000000000e+00 2.650000000000e+01 0.000000000000e+00 0.000000000000e+00 0.000000000000e+00
2.490000000000e+02 0.000000000000e+00 2.750000000000e+01 0.000000000000e+00 0.000000000000e+00 0.000000000000e+00
2.500000000000e+02 0.000000000000e+00 2.750000000000e+01 0.000000000000e+00 0.000000000000e+00 0.000000000000e+00
2.490000000000e+02 0.000000000000e+00 2.850000000000e+01 0.000000000000e+00 0.000000000000e+00 0.000000000000e+00
2.500000000000e+02 0.000000000000e+00 2.850000000000e+01 0.000000000000e+00 0.000000000000e+00 0.000000000000e+00
2.490000000000e+02 0.000000000000e+00 2.950000000000e+01 0.000000000000e+00 0.000000000000e+00 0.000000000000e+00
2.500000000000e+02 0.000000000000e+00 2.950000000000e+01 0.000000000000e+00 0.000000000000e+00 0.000000000000e+00
VARIABLES = "X","Y","Z",VELOCITY1_X,VELOCITY1_Y,VELOCITY1_Z
ZONE T="1.797693134862e+308s", 
2.490000000000e+02 0.000000000000e+00 5.000000000000e-01 1.342825180704e-07 -2.690579795193e-10 0.000000000000e+00
2.500000000000e+02 0.000000000000e+00 5.000000000000e-01 1.348206212611e-07 -2.690567631927e-10 0.000000000000e+00
2.490000000000e+02 0.000000000000e+00 1.500000000000e+00 4.695546675831e-09 -5.475443356707e-10 0.000000000000e+00
2.500000000000e+02 0.000000000000e+00 1.500000000000e+00 4.714362889241e-09 -5.475413415437e-10 0.000000000000e+00
2.490000000000e+02 0.000000000000e+00 2.500000000000e+00 1.248178496007e-08 -5.819626771531e-10 0.000000000000e+00
2.500000000000e+02 0.000000000000e+00 2.500000000000e+00 1.253180252340e-08 -5.819595978492e-10 0.000000000000e+00
2.490000000000e+02 0.000000000000e+00 3.500000000000e+00 2.457216046445e-08 -6.562085099823e-10 0.000000000000e+00
2.500000000000e+02 0.000000000000e+00 3.500000000000e+00 2.467062745250e-08 -6.562048905490e-10 0.000000000000e+00
2.490000000000e+02 0.000000000000e+00 4.500000000000e+00 1.593496488845e-08 -7.373752575214e-10 0.000000000000e+00
2.500000000000e+02 0.000000000000e+00 4.500000000000e+00 1.599882029548e-08 -7.373712770301e-10 0.000000000000e+00
2.490000000000e+02 0.000000000000e+00 5.500000000000e+00 2.241709011908e-10 -7.697546699850e-10 0.000000000000e+00
2.500000000000e+02 0.000000000000e+00 5.500000000000e+00 2.250692145162e-10 -7.697504838958e-10 0.000000000000e+00
2.490000000000e+02 0.000000000000e+00 6.500000000000e+00 3.089945932936e-09 -7.763952920237e-10 0.000000000000e+00
2.500000000000e+02 0.000000000000e+00 6.500000000000e+00 3.102328555187e-09 -7.763910512146e-10 0.000000000000e+00
2.490000000000e+02 0.000000000000e+00 7.500000000000e+00 8.767004993998e-10 -7.843437877712e-10 0.000000000000e+00
2.500000000000e+02 0.000000000000e+00 7.500000000000e+00 8.802137752360e-10 -7.843395358947e-10 0.000000000000e+00
2.490000000000e+02 0.000000000000e+00 8.500000000000e+00 8.071327093484e-10 -7.877178711886e-10 0.000000000000e+00
2.500000000000e+02 0.000000000000e+00 8.500000000000e+00 8.103672329857e-10 -7.877135923613e-10 0.000000000000e+00
2.490000000000e+02 0.000000000000e+00 9.500000000000e+00 7.158374191262e-09 -8.036788945198e-10 0.000000000000e+00
2.500000000000e+02 0.000000000000e+00 9.500000000000e+00 7.187061007684e-09 -8.036746065240e-10 0.000000000000e+00
2.490000000000e+02 0.000000000000e+00 1.050000000000e+01 1.271327788419e-08 -8.434980765859e-10 0.000000000000e+00
2.500000000000e+02 0.000000000000e+00 1.050000000000e+01 1.276422584113e-08 -8.434935163401e-10 0.000000000000e+00
2.490000000000e+02 0.000000000000e+00 1.150000000000e+01 3.739976102544e-07 -1.618377820948e-09 0.000000000000e+00
2.500000000000e+02 0.000000000000e+00 1.150000000000e+01 3.754963904488e-07 -1.618370217035e-09 0.000000000000e+00
2.490000000000e+02 0.000000000000e+00 1.250000000000e+01 4.107072621323e-09 -2.376052213125e-09 0.000000000000e+00
2.500000000000e+02 0.000000000000e+00 1.250000000000e+01 4.123531554259e-09 -2.376040614926e-09 0.000000000000e+00
2.490000000000e+02 0.000000000000e+00 1.350000000000e+01 4.017079156201e-08 -2.464775518783e-09 0.000000000000e+00
2.500000000000e+02 0.000000000000e+00 1.350000000000e+01 4.033177522149e-08 -2.464763444354e-09 0.000000000000e+00
2.490000000000e+02 0.000000000000e+00 1.450000000000e+01 3.742096903945e-10 -2.546022701081e-09 0.000000000000e+00
2.500000000000e+02 0.000000000000e+00 1.450000000000e+01 3.757093352246e-10 -2.546010307507e-09 0.000000000000e+00
2.490000000000e+02 0.000000000000e+00 1.550000000000e+01 5.078388078037e-11 -2.546874386833e-09 0.000000000000e+00
2.500000000000e+02 0.000000000000e+00 1.550000000000e+01 5.098741586179e-11 -2.546861987408e-09 0.000000000000e+00
2.490000000000e+02 0.000000000000e+00 1.650000000000e+01 5.860696304913e-09 -2.558724846855e-09 0.000000000000e+00
2.500000000000e+02 0.000000000000e+00 1.650000000000e+01 5.884193325587e-09 -2.558712411254e-09 0.000000000000e+00
2.490000000000e+02 0.000000000000e+00 1.750000000000e+01 1.893141673463e-08 -2.608425221671e-09 0.000000000000e+00
2.500000000000e+02 0.000000000000e+00 1.750000000000e+01 1.900731765324e-08 -2.608412709997e-09 0.000000000000e+00
2.490000000000e+02 0.000000000000e+00 1.850000000000e+01 1.097189028628e-09 -2.648576760310e-09 0.000000000000e+00
2.500000000000e+02 0.000000000000e+00 1.850000000000e+01 1.101587950250e-09 -2.648564648025e-09 0.000000000000e+00
2.490000000000e+02 0.000000000000e+00 1.950000000000e+01 4.253122663368e-10 -2.651628965694e-09 0.000000000000e+00
2.500000000000e+02 0.000000000000e+00 1.950000000000e+01 4.270175000959e-10 -2.651616849674e-09 0.000000000000e+00
2.490000000000e+02 0.000000000000e+00 2.050000000000e+01 6.579149464067e-09 -2.665671646505e-09 0.000000000000e+00
2.500000000000e+02 0.000000000000e+00 2.050000000000e+01 6.605528775185e-09 -2.665659434721e-09 0.000000000000e+00
2.490000000000e+02 0.000000000000e+00 2.150000000000e+01 1.572689007528e-07 -2.994161339079e-09 0.000000000000e+00
2.500000000000e+02 0.000000000000e+00 2.150000000000e+01 1.578994804215e-07 -2.994145942149e-09 0.000000000000e+00
2.490000000000e+02 0.000000000000e+00 2.250000000000e+01 2.166143687760e-07 -3.743731896577e-09 0.000000000000e+00
2.500000000000e+02 0.000000000000e+00 2.250000000000e+01 2.174829100684e-07 -3.743725719466e-09 0.000000000000e+00
2.490000000000e+02 0.000000000000e+00 2.350000000000e+01 4.088917386376e-09 -4.186195193638e-09 0.000000000000e+00
2.500000000000e+02 0.000000000000e+00 2.350000000000e+01 4.105312665661e-09 -4.186189377595e-09 0.000000000000e+00
2.490000000000e+02 0.000000000000e+00 2.450000000000e+01 2.773303142208e-07 -4.750385549569e-09 0.000000000000e+00
2.500000000000e+02 0.000000000000e+00 2.450000000000e+01 2.784422981063e-07 -4.750384360077e-09 0.000000000000e+00
2.490000000000e+02 0.000000000000e+00 2.550000000000e+01 3.068419986220e-09 -5.312540029439e-09 0.000000000000e+00
2.500000000000e+02 0.000000000000e+00 2.550000000000e+01 3.080723216801e-09 -5.312538303056e-09 0.000000000000e+00
2.490000000000e+02 0.000000000000e+00 2.650000000000e+01 9.032397473029e-10 -5.320502570409e-09 0.000000000000e+00
2.500000000000e+02 0.000000000000e+00 2.650000000000e+01 9.068614206346e-10 -5.320500772262e-09 0.000000000000e+00
2.490000000000e+02 0.000000000000e+00 2.750000000000e+01 1.683438373083e-08 -5.356063005213e-09 0.000000000000e+00
2.500000000000e+02 0.000000000000e+00 2.750000000000e+01 1.690188285655e-08 -5.356061552030e-09 0.000000000000e+00
2.490000000000e+02 0.000000000000e+00 2.850000000000e+01 8.858700909442e-08 -5.567412987431e-09 0.000000000000e+00
2.500000000000e+02 0.000000000000e+00 2.850000000000e+01 8.894220864747e-08 -5.567413440411e-09 0.000000000000e+00
2.490000000000e+02 0.000000000000e+00 2.950000000000e+01 6.133388120253e-09 -5.757313801902e-09 0.000000000000e+00
2.500000000000e+02 0.000000000000e+00 2.950000000000e+01 6.157980712552e-09 -5.757313800401e-09 0.000000000000e+00
