 TITLE = "Profiles along polylines"
 VARIABLES = "DIST" "HEAD" "VELOCITY_X1" "VELOCITY_Y1" "VELOCITY_Z1" 
 ZONE T="TIME=0.000000000000e+00"
0.000000000000e+00 3.000000000000e+01 0.000000000000e+00 0.000000000000e+00 0.000000000000e+00 
1.000000000000e+00 3.000000000000e+01 0.000000000000e+00 0.000000000000e+00 0.000000000000e+00 
2.000000000000e+00 3.000000000000e+01 0.000000000000e+00 0.000000000000e+00 0.000000000000e+00 
3.000000000000e+00 3.000000000000e+01 0.000000000000e+00 0.000000000000e+00 0.000000000000e+00 
4.000000000000e+00 3.000000000000e+01 0.000000000000e+00 0.000000000000e+00 0.000000000000e+00 
5.000000000000e+00 3.000000000000e+01 0.000000000000e+00 0.000000000000e+00 0.000000000000e+00 
6.000000000000e+00 3.000000000000e+01 0.000000000000e+00 0.000000000000e+00 0.000000000000e+00 
7.000000000000e+00 3.000000000000e+01 0.000000000000e+00 0.000000000000e+00 0.000000000000e+00 
8.000000000000e+00 3.000000000000e+01 0.000000000000e+00 0.000000000000e+00 0.000000000000e+00 
9.000000000000e+00 3.000000000000e+01 0.000000000000e+00 0.000000000000e+00 0.000000000000e+00 
1.000000000000e+01 3.000000000000e+01 0.000000000000e+00 0.000000000000e+00 0.000000000000e+00 
1.100000000000e+01 3.000000000000e+01 0.000000000000e+00 0.000000000000e+00 0.000000000000e+00 
1.200000000000e+01 3.000000000000e+01 0.000000000000e+00 0.000000000000e+00 0.000000000000e+00 
1.300000000000e+01 3.000000000000e+01 0.000000000000e+00 0.000000000000e+00 0.000000000000e+00 
1.400000000000e+01 3.000000000000e+01 0.000000000000e+00 0.000000000000e+00 0.000000000000e+00 
1.500000000000e+01 3.000000000000e+01 0.000000000000e+00 0.000000000000e+00 0.000000000000e+00 
1.600000000000e+01 3.000000000000e+01 0.000000000000e+00 0.000000000000e+00 0.000000000000e+00 
1.700000000000e+01 3.000000000000e+01 0.000000000000e+00 0.000000000000e+00 0.000000000000e+00 
1.800000000000e+01 3.000000000000e+01 0.000000000000e+00 0.000000000000e+00 0.000000000000e+00 
1.900000000000e+01 3.000000000000e+01 0.000000000000e+00 0.000000000000e+00 0.000000000000e+00 
2.000000000000e+01 3.000000000000e+01 0.000000000000e+00 0.000000000000e+00 0.000000000000e+00 
2.100000000000e+01 3.000000000000e+01 0.000000000000e+00 0.000000000000e+00 0.000000000000e+00 
2.200000000000e+01 3.000000000000e+01 0.000000000000e+00 0.000000000000e+00 0.000000000000e+00 
2.300000000000e+01 3.000000000000e+01 0.000000000000e+00 0.000000000000e+00 0.000000000000e+00 
2.400000000000e+01 3.000000000000e+01 0.000000000000e+00 0.000000000000e+00 0.000000000000e+00 
2.500000000000e+01 3.000000000000e+01 0.000000000000e+00 0.000000000000e+00 0.000000000000e+00 
2.600000000000e+01 3.000000000000e+01 0.000000000000e+00 0.000000000000e+00 0.000000000000e+00 
2.700000000000e+01 3.000000000000e+01 0.000000000000e+00 0.000000000000e+00 0.000000000000e+00 
2.800000000000e+01 3.000000000000e+01 0.000000000000e+00 0.000000000000e+00 0.000000000000e+00 
2.900000000000e+01 3.000000000000e+01 0.000000000000e+00 0.000000000000e+00 0.000000000000e+00 
3.000000000000e+01 3.000000000000e+01 0.000000000000e+00 0.000000000000e+00 0.000000000000e+00 
 TITLE = "Profiles along polylines"
 VARIABLES = "DIST" "HEAD" "VELOCITY_X1" "VELOCITY_Y1" "VELOCITY_Z1" 
 ZONE T="TIME=1.797693134862e+308"
0.000000000000e+00 3.053938139076e+01 2.691134628569e-08 -2.691391535321e-10 0.000000000000e+00 
1.000000000000e+00 3.053938194340e+01 1.392618662335e-08 -4.084609693459e-10 0.000000000000e+00 
2.000000000000e+00 3.053941411014e+01 1.721240536784e-09 -5.649983503997e-10 0.000000000000e+00 
3.000000000000e+00 3.053942697162e+01 3.712959673682e-09 -6.193511562020e-10 0.000000000000e+00 
4.000000000000e+00 3.053943433825e+01 4.058982373859e-09 -6.970907646393e-10 0.000000000000e+00 
5.000000000000e+00 3.053944710293e+01 1.619212558854e-09 -7.538909950017e-10 0.000000000000e+00 
6.000000000000e+00 3.054039431641e+01 3.320851940480e-10 -7.734100311884e-10 0.000000000000e+00 
7.000000000000e+00 3.054046362920e+01 3.974704134968e-10 -7.807074043224e-10 0.000000000000e+00 
8.000000000000e+00 3.054071042492e+01 1.687251201942e-10 -7.863712782021e-10 0.000000000000e+00 
9.000000000000e+00 3.054097964668e+01 7.981640702844e-10 -7.960415681036e-10 0.000000000000e+00 
1.000000000000e+01 3.054101061754e+01 1.991189002057e-09 -8.239408663309e-10 0.000000000000e+00 
1.100000000000e+01 3.054102892004e+01 3.874937949014e-08 -1.231392200669e-09 0.000000000000e+00 
1.200000000000e+01 3.054103011363e+01 3.788701624502e-08 -1.997956034443e-09 0.000000000000e+00 
1.300000000000e+01 3.054118969902e+01 4.436744518672e-09 -2.421357853565e-09 0.000000000000e+00 
1.400000000000e+01 3.054120662428e+01 4.062702476119e-09 -2.506373499676e-09 0.000000000000e+00 
1.500000000000e+01 3.054308342682e+01 4.258551828348e-11 -2.547442496242e-09 0.000000000000e+00 
1.600000000000e+01 3.055691837886e+01 5.922553361239e-10 -2.553791552033e-09 0.000000000000e+00 
1.700000000000e+01 3.055703884443e+01 2.483849337952e-09 -2.584557804901e-09 0.000000000000e+00 
1.800000000000e+01 3.055707686155e+01 2.006606901021e-09 -2.629474833247e-09 0.000000000000e+00 
1.900000000000e+01 3.055774292054e+01 1.525348585552e-10 -2.651074412095e-09 0.000000000000e+00 
2.000000000000e+01 3.055946317136e+01 7.017417902825e-10 -2.659618233048e-09 0.000000000000e+00 
2.100000000000e+01 3.055957496909e+01 1.641507372220e-08 -2.830803904533e-09 0.000000000000e+00 
2.200000000000e+01 3.055958022187e+01 3.745739291192e-08 -3.369641338338e-09 0.000000000000e+00 
2.300000000000e+01 3.055958498974e+01 2.211109754141e-08 -3.965507058155e-09 0.000000000000e+00 
2.400000000000e+01 3.055986741504e+01 2.819388912636e-08 -4.468666771890e-09 0.000000000000e+00 
2.500000000000e+01 3.055987213995e+01 2.809165077773e-08 -5.031657773228e-09 0.000000000000e+00 
2.600000000000e+01 3.056034971279e+01 3.978993949337e-10 -5.316665125749e-09 0.000000000000e+00 
2.700000000000e+01 3.056197452039e+01 1.777035443410e-09 -5.338417279388e-09 0.000000000000e+00 
2.800000000000e+01 3.056206228110e+01 1.056159153272e-08 -5.461821263879e-09 0.000000000000e+00 
2.900000000000e+01 3.056207961626e+01 9.489517401313e-09 -5.662385058347e-09 0.000000000000e+00 
3.000000000000e+01 3.056233853362e+01 1.228941059905e-09 -5.757316828741e-09 0.000000000000e+00 
