 TITLE = "Profiles along polylines"
 VARIABLES = "DIST" "HEAD" "VELOCITY_X1" "VELOCITY_Y1" "VELOCITY_Z1" 
 ZONE T="TIME=0.000000000000e+00"
0.000000000000e+00 3.000000000000e+01 0.000000000000e+00 0.000000000000e+00 0.000000000000e+00 
1.000000000000e+00 3.000000000000e+01 0.000000000000e+00 0.000000000000e+00 0.000000000000e+00 
2.000000000000e+00 3.000000000000e+01 0.000000000000e+00 0.000000000000e+00 0.000000000000e+00 
3.000000000000e+00 3.000000000000e+01 0.000000000000e+00 0.000000000000e+00 0.000000000000e+00 
4.000000000000e+00 3.000000000000e+01 0.000000000000e+00 0.000000000000e+00 0.000000000000e+00 
5.000000000000e+00 3.000000000000e+01 0.000000000000e+00 0.000000000000e+00 0.000000000000e+00 
6.000000000000e+00 3.000000000000e+01 0.000000000000e+00 0.000000000000e+00 0.000000000000e+00 
7.000000000000e+00 3.000000000000e+01 0.000000000000e+00 0.000000000000e+00 0.000000000000e+00 
8.000000000000e+00 3.000000000000e+01 0.000000000000e+00 0.000000000000e+00 0.000000000000e+00 
9.000000000000e+00 3.000000000000e+01 0.000000000000e+00 0.000000000000e+00 0.000000000000e+00 
1.000000000000e+01 3.000000000000e+01 0.000000000000e+00 0.000000000000e+00 0.000000000000e+00 
1.100000000000e+01 3.000000000000e+01 0.000000000000e+00 0.000000000000e+00 0.000000000000e+00 
1.200000000000e+01 3.000000000000e+01 0.000000000000e+00 0.000000000000e+00 0.000000000000e+00 
1.300000000000e+01 3.000000000000e+01 0.000000000000e+00 0.000000000000e+00 0.000000000000e+00 
1.400000000000e+01 3.000000000000e+01 0.000000000000e+00 0.000000000000e+00 0.000000000000e+00 
1.500000000000e+01 3.000000000000e+01 0.000000000000e+00 0.000000000000e+00 0.000000000000e+00 
1.600000000000e+01 3.000000000000e+01 0.000000000000e+00 0.000000000000e+00 0.000000000000e+00 
1.700000000000e+01 3.000000000000e+01 0.000000000000e+00 0.000000000000e+00 0.000000000000e+00 
1.800000000000e+01 3.000000000000e+01 0.000000000000e+00 0.000000000000e+00 0.000000000000e+00 
1.900000000000e+01 3.000000000000e+01 0.000000000000e+00 0.000000000000e+00 0.000000000000e+00 
2.000000000000e+01 3.000000000000e+01 0.000000000000e+00 0.000000000000e+00 0.000000000000e+00 
2.100000000000e+01 3.000000000000e+01 0.000000000000e+00 0.000000000000e+00 0.000000000000e+00 
2.200000000000e+01 3.000000000000e+01 0.000000000000e+00 0.000000000000e+00 0.000000000000e+00 
2.300000000000e+01 3.000000000000e+01 0.000000000000e+00 0.000000000000e+00 0.000000000000e+00 
2.400000000000e+01 3.000000000000e+01 0.000000000000e+00 0.000000000000e+00 0.000000000000e+00 
2.500000000000e+01 3.000000000000e+01 0.000000000000e+00 0.000000000000e+00 0.000000000000e+00 
2.600000000000e+01 3.000000000000e+01 0.000000000000e+00 0.000000000000e+00 0.000000000000e+00 
2.700000000000e+01 3.000000000000e+01 0.000000000000e+00 0.000000000000e+00 0.000000000000e+00 
2.800000000000e+01 3.000000000000e+01 0.000000000000e+00 0.000000000000e+00 0.000000000000e+00 
2.900000000000e+01 3.000000000000e+01 0.000000000000e+00 0.000000000000e+00 0.000000000000e+00 
3.000000000000e+01 3.000000000000e+01 0.000000000000e+00 0.000000000000e+00 0.000000000000e+00 
 TITLE = "Profiles along polylines"
 VARIABLES = "DIST" "HEAD" "VELOCITY_X1" "VELOCITY_Y1" "VELOCITY_Z1" 
 ZONE T="TIME=1.797693134862e+308"
0.000000000000e+00 3.000000000000e+01 4.804366369440e-07 1.237336091915e-19 0.000000000000e+00 
1.000000000000e+00 3.000000000000e+01 2.486192080274e-07 -8.059200609822e-20 0.000000000000e+00 
2.000000000000e+00 3.000000000000e+01 3.073598442186e-08 3.832405290169e-20 0.000000000000e+00 
3.000000000000e+00 3.000000000000e+01 6.630816769811e-08 -2.103927817586e-20 0.000000000000e+00 
4.000000000000e+00 3.000000000000e+01 7.249158451460e-08 -8.994774826713e-20 0.000000000000e+00 
5.000000000000e+00 3.000000000000e+01 2.892113084293e-08 6.995201885443e-20 0.000000000000e+00 
6.000000000000e+00 3.000000000000e+01 5.972992052654e-09 -6.972041032765e-24 0.000000000000e+00 
7.000000000000e+00 3.000000000000e+01 7.152674966713e-09 -1.784917326267e-21 0.000000000000e+00 
8.000000000000e+00 3.000000000000e+01 3.041807150199e-09 3.448429028640e-21 0.000000000000e+00 
9.000000000000e+00 3.000000000000e+01 1.441793681422e-08 -3.062475072627e-20 0.000000000000e+00 
1.000000000000e+01 3.000000000000e+01 3.597680760886e-08 2.346865471814e-21 0.000000000000e+00 
1.100000000000e+01 3.000000000000e+01 7.002194840571e-07 -8.407836576294e-19 0.000000000000e+00 
1.200000000000e+01 3.000000000000e+01 6.846429646703e-07 -1.233565275989e-18 0.000000000000e+00 
1.300000000000e+01 3.000000000000e+01 8.028484933451e-08 1.543752494802e-19 0.000000000000e+00 
1.400000000000e+01 3.000000000000e+01 7.352712420625e-08 1.465526204260e-19 0.000000000000e+00 
1.500000000000e+01 3.000000000000e+01 7.832394203620e-10 -5.478708658955e-22 0.000000000000e+00 
1.600000000000e+01 3.000000000000e+01 1.217689759285e-08 -2.759955700861e-20 0.000000000000e+00 
1.700000000000e+01 3.000000000000e+01 5.111658745261e-08 2.872304766112e-20 0.000000000000e+00 
1.800000000000e+01 3.000000000000e+01 4.130869287858e-08 9.745694756722e-21 0.000000000000e+00 
1.900000000000e+01 3.000000000000e+01 3.159538312654e-09 -9.561557102421e-22 0.000000000000e+00 
2.000000000000e+01 3.000000000000e+01 1.476750214852e-08 2.123412466744e-21 0.000000000000e+00 
2.100000000000e+01 3.000000000000e+01 3.458056831005e-07 -2.878955082152e-19 0.000000000000e+00 
2.200000000000e+01 3.000000000000e+01 7.891596343137e-07 -4.344898100319e-20 0.000000000000e+00 
2.300000000000e+01 3.000000000000e+01 4.659041185987e-07 2.287687032592e-19 0.000000000000e+00 
2.400000000000e+01 3.000000000000e+01 5.997018805391e-07 1.100036986675e-18 0.000000000000e+00 
2.500000000000e+01 3.000000000000e+01 5.976593928570e-07 7.836579807694e-19 0.000000000000e+00 
2.600000000000e+01 3.000000000000e+01 8.699900663901e-09 -3.833618632078e-22 0.000000000000e+00 
2.700000000000e+01 3.000000000000e+01 4.250256113267e-08 -3.828105037087e-20 0.000000000000e+00 
2.800000000000e+01 3.000000000000e+01 2.543847500471e-07 -8.855559762271e-21 0.000000000000e+00 
2.900000000000e+01 3.000000000000e+01 2.297075196899e-07 -5.881650943452e-20 0.000000000000e+00 
3.000000000000e+01 3.000000000000e+01 3.468673174570e-08 -2.803108300789e-21 0.000000000000e+00 
