VARIABLES = "X","Y","Z",VELOCITY1_X,VELOCITY1_Y,VELOCITY1_Z
ZONE T="0.000000000000e+00s", 
0.000000000000e+00 0.000000000000e+00 5.000000000000e-01 0.000000000000e+00 0.000000000000e+00 0.000000000000e+00
0.000000000000e+00 0.000000000000e+00 1.500000000000e+00 0.000000000000e+00 0.000000000000e+00 0.000000000000e+00
0.000000000000e+00 0.000000000000e+00 2.500000000000e+00 0.000000000000e+00 0.000000000000e+00 0.000000000000e+00
0.000000000000e+00 0.000000000000e+00 3.500000000000e+00 0.000000000000e+00 0.000000000000e+00 0.000000000000e+00
0.000000000000e+00 0.000000000000e+00 4.500000000000e+00 0.000000000000e+00 0.000000000000e+00 0.000000000000e+00
0.000000000000e+00 0.000000000000e+00 5.500000000000e+00 0.000000000000e+00 0.000000000000e+00 0.000000000000e+00
0.000000000000e+00 0.000000000000e+00 6.500000000000e+00 0.000000000000e+00 0.000000000000e+00 0.000000000000e+00
0.000000000000e+00 0.000000000000e+00 7.500000000000e+00 0.000000000000e+00 0.000000000000e+00 0.000000000000e+00
0.000000000000e+00 0.000000000000e+00 8.500000000000e+00 0.000000000000e+00 0.000000000000e+00 0.000000000000e+00
0.000000000000e+00 0.000000000000e+00 9.500000000000e+00 0.000000000000e+00 0.000000000000e+00 0.000000000000e+00
0.000000000000e+00 0.000000000000e+00 1.050000000000e+01 0.000000000000e+00 0.000000000000e+00 0.000000000000e+00
0.000000000000e+00 0.000000000000e+00 1.150000000000e+01 0.000000000000e+00 0.000000000000e+00 0.000000000000e+00
0.000000000000e+00 0.000000000000e+00 1.250000000000e+01 0.000000000000e+00 0.000000000000e+00 0.000000000000e+00
0.000000000000e+00 0.000000000000e+00 1.350000000000e+01 0.000000000000e+00 0.000000000000e+00 0.000000000000e+00
0.000000000000e+00 0.000000000000e+00 1.450000000000e+01 0.000000000000e+00 0.000000000000e+00 0.000000000000e+00
0.000000000000e+00 0.000000000000e+00 1.550000000000e+01 0.000000000000e+00 0.000000000000e+00 0.000000000000e+00
0.000000000000e+00 0.000000000000e+00 1.650000000000e+01 0.000000000000e+00 0.000000000000e+00 0.000000000000e+00
0.000000000000e+00 0.000000000000e+00 1.750000000000e+01 0.000000000000e+00 0.000000000000e+00 0.000000000000e+00
0.000000000000e+00 0.000000000000e+00 1.850000000000e+01 0.000000000000e+00 0.000000000000e+00 0.000000000000e+00
0.000000000000e+00 0.000000000000e+00 1.950000000000e+01 0.000000000000e+00 0.000000000000e+00 0.000000000000e+00
0.000000000000e+00 0.000000000000e+00 2.050000000000e+01 0.000000000000e+00 0.000000000000e+00 0.000000000000e+00
0.000000000000e+00 0.000000000000e+00 2.150000000000e+01 0.000000000000e+00 0.000000000000e+00 0.000000000000e+00
0.000000000000e+00 0.000000000000e+00 2.250000000000e+01 0.000000000000e+00 0.000000000000e+00 0.000000000000e+00
0.000000000000e+00 0.000000000000e+00 2.350000000000e+01 0.000000000000e+00 0.000000000000e+00 0.000000000000e+00
0.000000000000e+00 0.000000000000e+00 2.450000000000e+01 0.000000000000e+00 0.000000000000e+00 0.000000000000e+00
0.000000000000e+00 0.000000000000e+00 2.550000000000e+01 0.000000000000e+00 0.000000000000e+00 0.000000000000e+00
0.000000000000e+00 0.000000000000e+00 2.650000000000e+01 0.000000000000e+00 0.000000000000e+00 0.000000000000e+00
0.000000000000e+00 0.000000000000e+00 2.750000000000e+01 0.000000000000e+00 0.000000000000e+00 0.000000000000e+00
0.000000000000e+00 0.000000000000e+00 2.850000000000e+01 0.000000000000e+00 0.000000000000e+00 0.000000000000e+00
0.000000000000e+00 0.000000000000e+00 2.950000000000e+01 0.000000000000e+00 0.000000000000e+00 0.000000000000e+00
VARIABLES = "X","Y","Z",VELOCITY1_X,VELOCITY1_Y,VELOCITY1_Z
ZONE T="1.797693134862e+308s", 
0.000000000000e+00 0.000000000000e+00 5.000000000000e-01 7.496832083720e-10 -7.496520970181e-10 0.000000000000e+00
0.000000000000e+00 0.000000000000e+00 1.500000000000e+00 1.434781525402e-11 -1.513866788727e-09 0.000000000000e+00
0.000000000000e+00 0.000000000000e+00 2.500000000000e+00 2.198470361151e-12 -1.530420177916e-09 0.000000000000e+00
0.000000000000e+00 0.000000000000e+00 3.500000000000e+00 3.373371538134e-11 -1.566351665405e-09 0.000000000000e+00
0.000000000000e+00 0.000000000000e+00 4.500000000000e+00 8.232233590304e-12 -1.608326048872e-09 0.000000000000e+00
0.000000000000e+00 0.000000000000e+00 5.500000000000e+00 5.557302431501e-10 -2.172269552116e-09 0.000000000000e+00
0.000000000000e+00 0.000000000000e+00 6.500000000000e+00 1.757225962183e-12 -2.729891438590e-09 0.000000000000e+00
0.000000000000e+00 0.000000000000e+00 7.500000000000e+00 4.493243506039e-13 -2.732098863629e-09 0.000000000000e+00
0.000000000000e+00 0.000000000000e+00 8.500000000000e+00 1.229060375988e-11 -2.744838899258e-09 0.000000000000e+00
0.000000000000e+00 0.000000000000e+00 9.500000000000e+00 4.340706826305e-10 -3.191188283837e-09 0.000000000000e+00
0.000000000000e+00 0.000000000000e+00 1.050000000000e+01 2.548244956791e-11 -3.650835900040e-09 0.000000000000e+00
0.000000000000e+00 0.000000000000e+00 1.150000000000e+01 1.318283280474e-11 -3.689511677669e-09 0.000000000000e+00
0.000000000000e+00 0.000000000000e+00 1.250000000000e+01 1.017863272810e-13 -3.702798413057e-09 0.000000000000e+00
0.000000000000e+00 0.000000000000e+00 1.350000000000e+01 3.151651948935e-10 -4.018060089099e-09 0.000000000000e+00
0.000000000000e+00 0.000000000000e+00 1.450000000000e+01 1.174488155633e-11 -4.345002535998e-09 0.000000000000e+00
0.000000000000e+00 0.000000000000e+00 1.550000000000e+01 6.148858813479e-12 -4.362898765850e-09 0.000000000000e+00
0.000000000000e+00 0.000000000000e+00 1.650000000000e+01 2.502211080143e-11 -4.394070019339e-09 0.000000000000e+00
0.000000000000e+00 0.000000000000e+00 1.750000000000e+01 9.412938348964e-12 -4.428507477176e-09 0.000000000000e+00
0.000000000000e+00 0.000000000000e+00 1.850000000000e+01 1.810020897555e-12 -4.439731710060e-09 0.000000000000e+00
0.000000000000e+00 0.000000000000e+00 1.950000000000e+01 6.194289284256e-12 -4.447736181457e-09 0.000000000000e+00
0.000000000000e+00 0.000000000000e+00 2.050000000000e+01 8.194095911391e-12 -4.462125160029e-09 0.000000000000e+00
0.000000000000e+00 0.000000000000e+00 2.150000000000e+01 3.194487263285e-11 -4.502265153722e-09 0.000000000000e+00
0.000000000000e+00 0.000000000000e+00 2.250000000000e+01 2.691976152867e-10 -4.803408174862e-09 0.000000000000e+00
0.000000000000e+00 0.000000000000e+00 2.350000000000e+01 8.052610892834e-11 -5.153156479315e-09 0.000000000000e+00
0.000000000000e+00 0.000000000000e+00 2.450000000000e+01 1.617968890832e-12 -5.235311320545e-09 0.000000000000e+00
0.000000000000e+00 0.000000000000e+00 2.550000000000e+01 1.775275140515e-10 -5.414454247503e-09 0.000000000000e+00
0.000000000000e+00 0.000000000000e+00 2.650000000000e+01 7.501336631298e-13 -5.592747744672e-09 0.000000000000e+00
0.000000000000e+00 0.000000000000e+00 2.750000000000e+01 3.794018047343e-11 -5.631437959052e-09 0.000000000000e+00
0.000000000000e+00 0.000000000000e+00 2.850000000000e+01 4.925939972844e-11 -5.718640626192e-09 0.000000000000e+00
0.000000000000e+00 0.000000000000e+00 2.950000000000e+01 8.523172296448e-13 -5.768757894279e-09 0.000000000000e+00
VARIABLES = "X","Y","Z",VELOCITY1_X,VELOCITY1_Y,VELOCITY1_Z
ZONE T="0.000000000000e+00s", 
0.000000000000e+00 0.000000000000e+00 5.000000000000e-01 0.000000000000e+00 0.000000000000e+00 0.000000000000e+00
0.000000000000e+00 0.000000000000e+00 1.500000000000e+00 0.000000000000e+00 0.000000000000e+00 0.000000000000e+00
0.000000000000e+00 0.000000000000e+00 2.500000000000e+00 0.000000000000e+00 0.000000000000e+00 0.000000000000e+00
0.000000000000e+00 0.000000000000e+00 3.500000000000e+00 0.000000000000e+00 0.000000000000e+00 0.000000000000e+00
0.000000000000e+00 0.000000000000e+00 4.500000000000e+00 0.000000000000e+00 0.000000000000e+00 0.000000000000e+00
0.000000000000e+00 0.000000000000e+00 5.500000000000e+00 0.000000000000e+00 0.000000000000e+00 0.000000000000e+00
0.000000000000e+00 0.000000000000e+00 6.500000000000e+00 0.000000000000e+00 0.000000000000e+00 0.000000000000e+00
0.000000000000e+00 0.000000000000e+00 7.500000000000e+00 0.000000000000e+00 0.000000000000e+00 0.000000000000e+00
0.000000000000e+00 0.000000000000e+00 8.500000000000e+00 0.000000000000e+00 0.000000000000e+00 0.000000000000e+00
0.000000000000e+00 0.000000000000e+00 9.500000000000e+00 0.000000000000e+00 0.000000000000e+00 0.000000000000e+00
0.000000000000e+00 0.000000000000e+00 1.050000000000e+01 0.000000000000e+00 0.000000000000e+00 0.000000000000e+00
0.000000000000e+00 0.000000000000e+00 1.150000000000e+01 0.000000000000e+00 0.000000000000e+00 0.000000000000e+00
0.000000000000e+00 0.000000000000e+00 1.250000000000e+01 0.000000000000e+00 0.000000000000e+00 0.000000000000e+00
0.000000000000e+00 0.000000000000e+00 1.350000000000e+01 0.000000000000e+00 0.000000000000e+00 0.000000000000e+00
0.000000000000e+00 0.000000000000e+00 1.450000000000e+01 0.000000000000e+00 0.000000000000e+00 0.000000000000e+00
0.000000000000e+00 0.000000000000e+00 1.550000000000e+01 0.000000000000e+00 0.000000000000e+00 0.000000000000e+00
0.000000000000e+00 0.000000000000e+00 1.650000000000e+01 0.000000000000e+00 0.000000000000e+00 0.000000000000e+00
0.000000000000e+00 0.000000000000e+00 1.750000000000e+01 0.000000000000e+00 0.000000000000e+00 0.000000000000e+00
0.000000000000e+00 0.000000000000e+00 1.850000000000e+01 0.000000000000e+00 0.000000000000e+00 0.000000000000e+00
0.000000000000e+00 0.000000000000e+00 1.950000000000e+01 0.000000000000e+00 0.000000000000e+00 0.000000000000e+00
0.000000000000e+00 0.000000000000e+00 2.050000000000e+01 0.000000000000e+00 0.000000000000e+00 0.000000000000e+00
0.000000000000e+00 0.000000000000e+00 2.150000000000e+01 0.000000000000e+00 0.000000000000e+00 0.000000000000e+00
0.000000000000e+00 0.000000000000e+00 2.250000000000e+01 0.000000000000e+00 0.000000000000e+00 0.000000000000e+00
0.000000000000e+00 0.000000000000e+00 2.350000000000e+01 0.000000000000e+00 0.000000000000e+00 0.000000000000e+00
0.000000000000e+00 0.000000000000e+00 2.450000000000e+01 0.000000000000e+00 0.000000000000e+00 0.000000000000e+00
0.000000000000e+00 0.000000000000e+00 2.550000000000e+01 0.000000000000e+00 0.000000000000e+00 0.000000000000e+00
0.000000000000e+00 0.000000000000e+00 2.650000000000e+01 0.000000000000e+00 0.000000000000e+00 0.000000000000e+00
0.000000000000e+00 0.000000000000e+00 2.750000000000e+01 0.000000000000e+00 0.000000000000e+00 0.000000000000e+00
0.000000000000e+00 0.000000000000e+00 2.850000000000e+01 0.000000000000e+00 0.000000000000e+00 0.000000000000e+00
0.000000000000e+00 0.000000000000e+00 2.950000000000e+01 0.000000000000e+00 0.000000000000e+00 0.000000000000e+00
VARIABLES = "X","Y","Z",VELOCITY1_X,VELOCITY1_Y,VELOCITY1_Z
ZONE T="8.640000000000e+04s", 
0.000000000000e+00 0.000000000000e+00 5.000000000000e-01 7.496336419877e-10 -7.474957322172e-10 0.000000000000e+00
0.000000000000e+00 0.000000000000e+00 1.500000000000e+00 1.434909991421e-11 -1.507005801039e-09 0.000000000000e+00
0.000000000000e+00 0.000000000000e+00 2.500000000000e+00 2.198747116399e-12 -1.519143629659e-09 0.000000000000e+00
0.000000000000e+00 0.000000000000e+00 3.500000000000e+00 3.373161290563e-11 -1.550441118406e-09 0.000000000000e+00
0.000000000000e+00 0.000000000000e+00 4.500000000000e+00 8.232498068471e-12 -1.587664358748e-09 0.000000000000e+00
0.000000000000e+00 0.000000000000e+00 5.500000000000e+00 5.556989127218e-10 -2.146761707639e-09 0.000000000000e+00
0.000000000000e+00 0.000000000000e+00 6.500000000000e+00 1.757379267432e-12 -2.699059847086e-09 0.000000000000e+00
0.000000000000e+00 0.000000000000e+00 7.500000000000e+00 4.493742577065e-13 -2.694563452515e-09 0.000000000000e+00
0.000000000000e+00 0.000000000000e+00 8.500000000000e+00 1.229002212310e-11 -2.696809124783e-09 0.000000000000e+00
0.000000000000e+00 0.000000000000e+00 9.500000000000e+00 4.340523469488e-10 -3.131604769577e-09 0.000000000000e+00
0.000000000000e+00 0.000000000000e+00 1.050000000000e+01 2.548401840138e-11 -3.579466324070e-09 0.000000000000e+00
0.000000000000e+00 0.000000000000e+00 1.150000000000e+01 1.318384854673e-11 -3.606311229869e-09 0.000000000000e+00
0.000000000000e+00 0.000000000000e+00 1.250000000000e+01 1.017913292045e-13 -3.596326434291e-09 0.000000000000e+00
0.000000000000e+00 0.000000000000e+00 1.350000000000e+01 3.151636923711e-10 -3.843639492587e-09 0.000000000000e+00
0.000000000000e+00 0.000000000000e+00 1.450000000000e+01 1.174523923688e-11 -4.091189077182e-09 0.000000000000e+00
0.000000000000e+00 0.000000000000e+00 1.550000000000e+01 6.149046862250e-12 -4.028216402218e-09 0.000000000000e+00
0.000000000000e+00 0.000000000000e+00 1.650000000000e+01 2.502219515380e-11 -3.975790673136e-09 0.000000000000e+00
0.000000000000e+00 0.000000000000e+00 1.750000000000e+01 9.413204862810e-12 -3.924765045998e-09 0.000000000000e+00
0.000000000000e+00 0.000000000000e+00 1.850000000000e+01 1.810110572542e-12 -3.844560600231e-09 0.000000000000e+00
0.000000000000e+00 0.000000000000e+00 1.950000000000e+01 6.194735595375e-12 -3.745334185599e-09 0.000000000000e+00
0.000000000000e+00 0.000000000000e+00 2.050000000000e+01 8.195520995535e-12 -3.643083970600e-09 0.000000000000e+00
0.000000000000e+00 0.000000000000e+00 2.150000000000e+01 3.195479747759e-11 -3.560807401217e-09 0.000000000000e+00
0.000000000000e+00 0.000000000000e+00 2.250000000000e+01 2.693372759256e-10 -3.737313839190e-09 0.000000000000e+00
0.000000000000e+00 0.000000000000e+00 2.350000000000e+01 8.058934188606e-11 -3.961511245971e-09 0.000000000000e+00
0.000000000000e+00 0.000000000000e+00 2.450000000000e+01 1.619448625622e-12 -3.908734944392e-09 0.000000000000e+00
0.000000000000e+00 0.000000000000e+00 2.550000000000e+01 1.775348460276e-10 -3.917822011017e-09 0.000000000000e+00
0.000000000000e+00 0.000000000000e+00 2.650000000000e+01 7.501683645713e-13 -3.892773116856e-09 0.000000000000e+00
0.000000000000e+00 0.000000000000e+00 2.750000000000e+01 3.794017346276e-11 -3.630827569560e-09 0.000000000000e+00
0.000000000000e+00 0.000000000000e+00 2.850000000000e+01 4.926265344288e-11 -3.390475498127e-09 0.000000000000e+00
0.000000000000e+00 0.000000000000e+00 2.950000000000e+01 8.524512593238e-13 -3.076774869472e-09 0.000000000000e+00
VARIABLES = "X","Y","Z",VELOCITY1_X,VELOCITY1_Y,VELOCITY1_Z
ZONE T="1.728000000000e+05s", 
0.000000000000e+00 0.000000000000e+00 5.000000000000e-01 7.496815736270e-10 -7.461956605875e-10 0.000000000000e+00
0.000000000000e+00 0.000000000000e+00 1.500000000000e+00 1.434792467437e-11 -1.503468837122e-09 0.000000000000e+00
0.000000000000e+00 0.000000000000e+00 2.500000000000e+00 2.198489588435e-12 -1.513061943357e-09 0.000000000000e+00
0.000000000000e+00 0.000000000000e+00 3.500000000000e+00 3.373353736530e-11 -1.541910541507e-09 0.000000000000e+00
0.000000000000e+00 0.000000000000e+00 4.500000000000e+00 8.232287360387e-12 -1.576745773931e-09 0.000000000000e+00
0.000000000000e+00 0.000000000000e+00 5.500000000000e+00 5.557279713279e-10 -2.133494133906e-09 0.000000000000e+00
0.000000000000e+00 0.000000000000e+00 6.500000000000e+00 1.757249094579e-12 -2.683781366796e-09 0.000000000000e+00
0.000000000000e+00 0.000000000000e+00 7.500000000000e+00 4.493307721778e-13 -2.677917959178e-09 0.000000000000e+00
0.000000000000e+00 0.000000000000e+00 8.500000000000e+00 1.229046000225e-11 -2.680900861996e-09 0.000000000000e+00
0.000000000000e+00 0.000000000000e+00 9.500000000000e+00 4.340670629246e-10 -3.117045668399e-09 0.000000000000e+00
0.000000000000e+00 0.000000000000e+00 1.050000000000e+01 2.548323909321e-11 -3.566408741932e-09 0.000000000000e+00
0.000000000000e+00 0.000000000000e+00 1.150000000000e+01 1.318332302853e-11 -3.594820156099e-09 0.000000000000e+00
0.000000000000e+00 0.000000000000e+00 1.250000000000e+01 1.017887516109e-13 -3.597976766289e-09 0.000000000000e+00
0.000000000000e+00 0.000000000000e+00 1.350000000000e+01 3.151645968218e-10 -3.903798702031e-09 0.000000000000e+00
0.000000000000e+00 0.000000000000e+00 1.450000000000e+01 1.174532641828e-11 -4.221557879176e-09 0.000000000000e+00
0.000000000000e+00 0.000000000000e+00 1.550000000000e+01 6.149093433529e-12 -4.231133369784e-09 0.000000000000e+00
0.000000000000e+00 0.000000000000e+00 1.650000000000e+01 2.502226477064e-11 -4.255631191891e-09 0.000000000000e+00
0.000000000000e+00 0.000000000000e+00 1.750000000000e+01 9.413200196681e-12 -4.284629296510e-09 0.000000000000e+00
0.000000000000e+00 0.000000000000e+00 1.850000000000e+01 1.810079002700e-12 -4.294817560910e-09 0.000000000000e+00
0.000000000000e+00 0.000000000000e+00 1.950000000000e+01 6.194215074077e-12 -4.313782556186e-09 0.000000000000e+00
0.000000000000e+00 0.000000000000e+00 2.050000000000e+01 8.193844432149e-12 -4.346613382471e-09 0.000000000000e+00
0.000000000000e+00 0.000000000000e+00 2.150000000000e+01 3.194251271300e-11 -4.410116307516e-09 0.000000000000e+00
0.000000000000e+00 0.000000000000e+00 2.250000000000e+01 2.691625877184e-10 -4.736675539129e-09 0.000000000000e+00
0.000000000000e+00 0.000000000000e+00 2.350000000000e+01 8.051303144545e-11 -5.112469786826e-09 0.000000000000e+00
0.000000000000e+00 0.000000000000e+00 2.450000000000e+01 1.617681579805e-12 -5.230038927886e-09 0.000000000000e+00
0.000000000000e+00 0.000000000000e+00 2.550000000000e+01 1.775263806024e-10 -5.479666726759e-09 0.000000000000e+00
0.000000000000e+00 0.000000000000e+00 2.650000000000e+01 7.501575194291e-13 -5.764104685608e-09 0.000000000000e+00
0.000000000000e+00 0.000000000000e+00 2.750000000000e+01 3.794016998791e-11 -6.016121413104e-09 0.000000000000e+00
0.000000000000e+00 0.000000000000e+00 2.850000000000e+01 4.926033110246e-11 -6.346568386403e-09 0.000000000000e+00
0.000000000000e+00 0.000000000000e+00 2.950000000000e+01 8.523569440698e-13 -6.688337254706e-09 0.000000000000e+00
VARIABLES = "X","Y","Z",VELOCITY1_X,VELOCITY1_Y,VELOCITY1_Z
ZONE T="2.592000000000e+05s", 
0.000000000000e+00 0.000000000000e+00 5.000000000000e-01 7.496436654924e-10 -7.449303559005e-10 0.000000000000e+00
0.000000000000e+00 0.000000000000e+00 1.500000000000e+00 1.434904640880e-11 -1.499349748448e-09 0.000000000000e+00
0.000000000000e+00 0.000000000000e+00 2.500000000000e+00 2.198729680410e-12 -1.506382777115e-09 0.000000000000e+00
0.000000000000e+00 0.000000000000e+00 3.500000000000e+00 3.373203889195e-11 -1.532667756679e-09 0.000000000000e+00
0.000000000000e+00 0.000000000000e+00 4.500000000000e+00 8.232521246029e-12 -1.564922324587e-09 0.000000000000e+00
0.000000000000e+00 0.000000000000e+00 5.500000000000e+00 5.557056272781e-10 -2.119100525790e-09 0.000000000000e+00
0.000000000000e+00 0.000000000000e+00 6.500000000000e+00 1.757374171612e-12 -2.666601940094e-09 0.000000000000e+00
0.000000000000e+00 0.000000000000e+00 7.500000000000e+00 4.493717033022e-13 -2.658028509436e-09 0.000000000000e+00
0.000000000000e+00 0.000000000000e+00 8.500000000000e+00 1.229014125293e-11 -2.657976472594e-09 0.000000000000e+00
0.000000000000e+00 0.000000000000e+00 9.500000000000e+00 4.340558170398e-10 -3.090982574601e-09 0.000000000000e+00
0.000000000000e+00 0.000000000000e+00 1.050000000000e+01 2.548393856841e-11 -3.537114900286e-09 0.000000000000e+00
0.000000000000e+00 0.000000000000e+00 1.150000000000e+01 1.318378107211e-11 -3.562325165370e-09 0.000000000000e+00
0.000000000000e+00 0.000000000000e+00 1.250000000000e+01 1.017914319255e-13 -3.557833621858e-09 0.000000000000e+00
0.000000000000e+00 0.000000000000e+00 1.350000000000e+01 3.151681730985e-10 -3.838478083618e-09 0.000000000000e+00
0.000000000000e+00 0.000000000000e+00 1.450000000000e+01 1.174530080833e-11 -4.126475377208e-09 0.000000000000e+00
0.000000000000e+00 0.000000000000e+00 1.550000000000e+01 6.149079591085e-12 -4.104879778176e-09 0.000000000000e+00
0.000000000000e+00 0.000000000000e+00 1.650000000000e+01 2.502250480099e-11 -4.095530594130e-09 0.000000000000e+00
0.000000000000e+00 0.000000000000e+00 1.750000000000e+01 9.413248272176e-12 -4.088732335793e-09 0.000000000000e+00
0.000000000000e+00 0.000000000000e+00 1.850000000000e+01 1.810102261628e-12 -4.056360852364e-09 0.000000000000e+00
0.000000000000e+00 0.000000000000e+00 1.950000000000e+01 6.194584960458e-12 -4.014414552867e-09 0.000000000000e+00
0.000000000000e+00 0.000000000000e+00 2.050000000000e+01 8.194875786700e-12 -3.974903006147e-09 0.000000000000e+00
0.000000000000e+00 0.000000000000e+00 2.150000000000e+01 3.194984172804e-11 -3.958546049512e-09 0.000000000000e+00
0.000000000000e+00 0.000000000000e+00 2.250000000000e+01 2.692644840541e-10 -4.202153435978e-09 0.000000000000e+00
0.000000000000e+00 0.000000000000e+00 2.350000000000e+01 8.055612924858e-11 -4.493920908765e-09 0.000000000000e+00
0.000000000000e+00 0.000000000000e+00 2.450000000000e+01 1.618667037090e-12 -4.513036591260e-09 0.000000000000e+00
0.000000000000e+00 0.000000000000e+00 2.550000000000e+01 1.775321070374e-10 -4.610150232431e-09 0.000000000000e+00
0.000000000000e+00 0.000000000000e+00 2.650000000000e+01 7.501605997026e-13 -4.686144449391e-09 0.000000000000e+00
0.000000000000e+00 0.000000000000e+00 2.750000000000e+01 3.794063644152e-11 -4.560793450019e-09 0.000000000000e+00
0.000000000000e+00 0.000000000000e+00 2.850000000000e+01 4.926051892864e-11 -4.466588466238e-09 0.000000000000e+00
0.000000000000e+00 0.000000000000e+00 2.950000000000e+01 8.523493991782e-13 -4.303424094594e-09 0.000000000000e+00
VARIABLES = "X","Y","Z",VELOCITY1_X,VELOCITY1_Y,VELOCITY1_Z
ZONE T="3.456000000000e+05s", 
0.000000000000e+00 0.000000000000e+00 5.000000000000e-01 7.496415657425e-10 -7.430928205875e-10 0.000000000000e+00
0.000000000000e+00 0.000000000000e+00 1.500000000000e+00 1.434916325373e-11 -1.493808478438e-09 0.000000000000e+00
0.000000000000e+00 0.000000000000e+00 2.500000000000e+00 2.198755724866e-12 -1.497144572989e-09 0.000000000000e+00
0.000000000000e+00 0.000000000000e+00 3.500000000000e+00 3.373215359413e-11 -1.519681515857e-09 0.000000000000e+00
0.000000000000e+00 0.000000000000e+00 4.500000000000e+00 8.232535487263e-12 -1.548164868673e-09 0.000000000000e+00
0.000000000000e+00 0.000000000000e+00 5.500000000000e+00 5.557079120489e-10 -2.098546936113e-09 0.000000000000e+00
0.000000000000e+00 0.000000000000e+00 6.500000000000e+00 1.757384512921e-12 -2.642201832687e-09 0.000000000000e+00
0.000000000000e+00 0.000000000000e+00 7.500000000000e+00 4.493857891720e-13 -2.629396491515e-09 0.000000000000e+00
0.000000000000e+00 0.000000000000e+00 8.500000000000e+00 1.229172531233e-11 -2.624231579424e-09 0.000000000000e+00
0.000000000000e+00 0.000000000000e+00 9.500000000000e+00 4.341416398880e-10 -3.051967882010e-09 0.000000000000e+00
0.000000000000e+00 0.000000000000e+00 1.050000000000e+01 2.548947943490e-11 -3.492736729494e-09 0.000000000000e+00
0.000000000000e+00 0.000000000000e+00 1.150000000000e+01 1.318691559136e-11 -3.512528818771e-09 0.000000000000e+00
0.000000000000e+00 0.000000000000e+00 1.250000000000e+01 1.018025950640e-13 -3.500791196802e-09 0.000000000000e+00
0.000000000000e+00 0.000000000000e+00 1.350000000000e+01 3.151683488232e-10 -3.767094123499e-09 0.000000000000e+00
0.000000000000e+00 0.000000000000e+00 1.450000000000e+01 1.174546746171e-11 -4.038972157498e-09 0.000000000000e+00
0.000000000000e+00 0.000000000000e+00 1.550000000000e+01 6.149169641078e-12 -4.001334716929e-09 0.000000000000e+00
0.000000000000e+00 0.000000000000e+00 1.650000000000e+01 2.502265971505e-11 -3.976126298446e-09 0.000000000000e+00
0.000000000000e+00 0.000000000000e+00 1.750000000000e+01 9.413450473609e-12 -3.953645459237e-09 0.000000000000e+00
0.000000000000e+00 0.000000000000e+00 1.850000000000e+01 1.810150232256e-12 -3.906405897072e-09 0.000000000000e+00
0.000000000000e+00 0.000000000000e+00 1.950000000000e+01 6.194454838842e-12 -3.851981664875e-09 0.000000000000e+00
0.000000000000e+00 0.000000000000e+00 2.050000000000e+01 8.194375961834e-12 -3.801714338892e-09 0.000000000000e+00
0.000000000000e+00 0.000000000000e+00 2.150000000000e+01 3.194583906253e-11 -3.775956228671e-09 0.000000000000e+00
0.000000000000e+00 0.000000000000e+00 2.250000000000e+01 2.692062695025e-10 -4.010732835849e-09 0.000000000000e+00
0.000000000000e+00 0.000000000000e+00 2.350000000000e+01 8.053122499471e-11 -4.293960412133e-09 0.000000000000e+00
0.000000000000e+00 0.000000000000e+00 2.450000000000e+01 1.618087314125e-12 -4.308146557399e-09 0.000000000000e+00
0.000000000000e+00 0.000000000000e+00 2.550000000000e+01 1.775297126317e-10 -4.413900009359e-09 0.000000000000e+00
0.000000000000e+00 0.000000000000e+00 2.650000000000e+01 7.501709361868e-13 -4.514948628852e-09 0.000000000000e+00
0.000000000000e+00 0.000000000000e+00 2.750000000000e+01 3.794075498285e-11 -4.466641724000e-09 0.000000000000e+00
0.000000000000e+00 0.000000000000e+00 2.850000000000e+01 4.926158375185e-11 -4.464305224060e-09 0.000000000000e+00
0.000000000000e+00 0.000000000000e+00 2.950000000000e+01 8.523965975495e-13 -4.426388085560e-09 0.000000000000e+00
VARIABLES = "X","Y","Z",VELOCITY1_X,VELOCITY1_Y,VELOCITY1_Z
ZONE T="4.320000000000e+05s", 
0.000000000000e+00 0.000000000000e+00 5.000000000000e-01 7.496709369424e-10 -7.379013860265e-10 0.000000000000e+00
0.000000000000e+00 0.000000000000e+00 1.500000000000e+00 1.434859062709e-11 -1.478418191672e-09 0.000000000000e+00
0.000000000000e+00 0.000000000000e+00 2.500000000000e+00 2.198623290847e-12 -1.471256681118e-09 0.000000000000e+00
0.000000000000e+00 0.000000000000e+00 3.500000000000e+00 3.373313905169e-11 -1.482953055346e-09 0.000000000000e+00
0.000000000000e+00 0.000000000000e+00 4.500000000000e+00 8.232488708812e-12 -1.500450740982e-09 0.000000000000e+00
0.000000000000e+00 0.000000000000e+00 5.500000000000e+00 5.557220613754e-10 -2.039671931886e-09 0.000000000000e+00
0.000000000000e+00 0.000000000000e+00 6.500000000000e+00 1.757315690407e-12 -2.571956636742e-09 0.000000000000e+00
0.000000000000e+00 0.000000000000e+00 7.500000000000e+00 4.493521576866e-13 -2.545239347666e-09 0.000000000000e+00
0.000000000000e+00 0.000000000000e+00 8.500000000000e+00 1.229046643076e-11 -2.520551756599e-09 0.000000000000e+00
0.000000000000e+00 0.000000000000e+00 9.500000000000e+00 4.340674134212e-10 -2.927121268040e-09 0.000000000000e+00
0.000000000000e+00 0.000000000000e+00 1.050000000000e+01 2.548385535703e-11 -3.346732541513e-09 0.000000000000e+00
0.000000000000e+00 0.000000000000e+00 1.150000000000e+01 1.318369234880e-11 -3.345068034690e-09 0.000000000000e+00
0.000000000000e+00 0.000000000000e+00 1.250000000000e+01 1.017911999854e-13 -3.295962896736e-09 0.000000000000e+00
0.000000000000e+00 0.000000000000e+00 1.350000000000e+01 3.151701313910e-10 -3.462879167885e-09 0.000000000000e+00
0.000000000000e+00 0.000000000000e+00 1.450000000000e+01 1.174550186623e-11 -3.619559177003e-09 0.000000000000e+00
0.000000000000e+00 0.000000000000e+00 1.550000000000e+01 6.149194460650e-12 -3.464757094458e-09 0.000000000000e+00
0.000000000000e+00 0.000000000000e+00 1.650000000000e+01 2.502282723372e-11 -3.318849891457e-09 0.000000000000e+00
0.000000000000e+00 0.000000000000e+00 1.750000000000e+01 9.413428436171e-12 -3.173271633437e-09 0.000000000000e+00
0.000000000000e+00 0.000000000000e+00 1.850000000000e+01 1.810122529207e-12 -2.995297825100e-09 0.000000000000e+00
0.000000000000e+00 0.000000000000e+00 1.950000000000e+01 6.194315082644e-12 -2.789924387291e-09 0.000000000000e+00
0.000000000000e+00 0.000000000000e+00 2.050000000000e+01 8.193949829601e-12 -2.576660927213e-09 0.000000000000e+00
0.000000000000e+00 0.000000000000e+00 2.150000000000e+01 3.194279805306e-11 -2.380475382066e-09 0.000000000000e+00
0.000000000000e+00 0.000000000000e+00 2.250000000000e+01 2.691635901497e-10 -2.441738619298e-09 0.000000000000e+00
0.000000000000e+00 0.000000000000e+00 2.350000000000e+01 8.051272607818e-11 -2.550708018004e-09 0.000000000000e+00
0.000000000000e+00 0.000000000000e+00 2.450000000000e+01 1.617672090342e-12 -2.378385633024e-09 0.000000000000e+00
0.000000000000e+00 0.000000000000e+00 2.550000000000e+01 1.775291746463e-10 -2.251814674003e-09 0.000000000000e+00
0.000000000000e+00 0.000000000000e+00 2.650000000000e+01 7.501671206495e-13 -2.076476900391e-09 0.000000000000e+00
0.000000000000e+00 0.000000000000e+00 2.750000000000e+01 3.794091540534e-11 -1.621978739385e-09 0.000000000000e+00
0.000000000000e+00 0.000000000000e+00 2.850000000000e+01 4.926114537206e-11 -1.177420408262e-09 0.000000000000e+00
0.000000000000e+00 0.000000000000e+00 2.950000000000e+01 8.523582136495e-13 -6.448220380213e-10 0.000000000000e+00
VARIABLES = "X","Y","Z",VELOCITY1_X,VELOCITY1_Y,VELOCITY1_Z
ZONE T="5.184000000000e+05s", 
0.000000000000e+00 0.000000000000e+00 5.000000000000e-01 7.496656694976e-10 -7.316957831258e-10 0.000000000000e+00
0.000000000000e+00 0.000000000000e+00 1.500000000000e+00 1.434888244544e-11 -1.459727388374e-09 0.000000000000e+00
0.000000000000e+00 0.000000000000e+00 2.500000000000e+00 2.198682719834e-12 -1.440106161747e-09 0.000000000000e+00
0.000000000000e+00 0.000000000000e+00 3.500000000000e+00 3.373295106155e-11 -1.439237982513e-09 0.000000000000e+00
0.000000000000e+00 0.000000000000e+00 4.500000000000e+00 8.232556032211e-12 -1.444123368448e-09 0.000000000000e+00
0.000000000000e+00 0.000000000000e+00 5.500000000000e+00 5.557198891241e-10 -1.970691884007e-09 0.000000000000e+00
0.000000000000e+00 0.000000000000e+00 6.500000000000e+00 1.757357861882e-12 -2.490193330292e-09 0.000000000000e+00
0.000000000000e+00 0.000000000000e+00 7.500000000000e+00 4.493639844882e-13 -2.450198955257e-09 0.000000000000e+00
0.000000000000e+00 0.000000000000e+00 8.500000000000e+00 1.229030691292e-11 -2.411126528007e-09 0.000000000000e+00
0.000000000000e+00 0.000000000000e+00 9.500000000000e+00 4.340600610134e-10 -2.803027759371e-09 0.000000000000e+00
0.000000000000e+00 0.000000000000e+00 1.050000000000e+01 2.548372251366e-11 -3.207954063913e-09 0.000000000000e+00
0.000000000000e+00 0.000000000000e+00 1.150000000000e+01 1.318362403737e-11 -3.191646829196e-09 0.000000000000e+00
0.000000000000e+00 0.000000000000e+00 1.250000000000e+01 1.017910257850e-13 -3.132255720758e-09 0.000000000000e+00
0.000000000000e+00 0.000000000000e+00 1.350000000000e+01 3.151669212497e-10 -3.306129105580e-09 0.000000000000e+00