VARIABLES = "X","Y","Z",VELOCITY1_X,VELOCITY1_Y,VELOCITY1_Z
ZONE T="0.000000000000e+00s", 
9.890000000000e+02 0.000000000000e+00 5.000000000000e-01 0.000000000000e+00 0.000000000000e+00 0.000000000000e+00
9.900000000000e+02 0.000000000000e+00 5.000000000000e-01 0.000000000000e+00 0.000000000000e+00 0.000000000000e+00
9.890000000000e+02 0.000000000000e+00 1.500000000000e+00 0.000000000000e+00 0.000000000000e+00 0.000000000000e+00
9.900000000000e+02 0.000000000000e+00 1.500000000000e+00 0.000000000000e+00 0.000000000000e+00 0.000000000000e+00
9.890000000000e+02 0.000000000000e+00 2.500000000000e+00 0.000000000000e+00 0.000000000000e+00 0.000000000000e+00
9.900000000000e+02 0.000000000000e+00 2.500000000000e+00 0.000000000000e+00 0.000000000000e+00 0.000000000000e+00
9.890000000000e+02 0.000000000000e+00 3.500000000000e+00 0.000000000000e+00 0.000000000000e+00 0.000000000000e+00
9.900000000000e+02 0.000000000000e+00 3.500000000000e+00 0.000000000000e+00 0.000000000000e+00 0.000000000000e+00
9.890000000000e+02 0.000000000000e+00 4.500000000000e+00 0.000000000000e+00 0.000000000000e+00 0.000000000000e+00
9.900000000000e+02 0.000000000000e+00 4.500000000000e+00 0.000000000000e+00 0.000000000000e+00 0.000000000000e+00
9.890000000000e+02 0.000000000000e+00 5.500000000000e+00 0.000000000000e+00 0.000000000000e+00 0.000000000000e+00
9.900000000000e+02 0.000000000000e+00 5.500000000000e+00 0.000000000000e+00 0.000000000000e+00 0.000000000000e+00
9.890000000000e+02 0.000000000000e+00 6.500000000000e+00 0.000000000000e+00 0.000000000000e+00 0.000000000000e+00
9.900000000000e+02 0.000000000000e+00 6.500000000000e+00 0.000000000000e+00 0.000000000000e+00 0.000000000000e+00
9.890000000000e+02 0.000000000000e+00 7.500000000000e+00 0.000000000000e+00 0.000000000000e+00 0.000000000000e+00
9.900000000000e+02 0.000000000000e+00 7.500000000000e+00 0.000000000000e+00 0.000000000000e+00 0.000000000000e+00
9.890000000000e+02 0.000000000000e+00 8.500000000000e+00 0.000000000000e+00 0.000000000000e+00 0.000000000000e+00
9.900000000000e+02 0.000000000000e+00 8.500000000000e+00 0.000000000000e+00 0.000000000000e+00 0.000000000000e+00
9.890000000000e+02 0.000000000000e+00 9.500000000000e+00 0.000000000000e+00 0.000000000000e+00 0.000000000000e+00
9.900000000000e+02 0.000000000000e+00 9.500000000000e+00 0.000000000000e+00 0.000000000000e+00 0.000000000000e+00
9.890000000000e+02 0.000000000000e+00 1.050000000000e+01 0.000000000000e+00 0.000000000000e+00 0.000000000000e+00
9.900000000000e+02 0.000000000000e+00 1.050000000000e+01 0.000000000000e+00 0.000000000000e+00 0.000000000000e+00
9.890000000000e+02 0.000000000000e+00 1.150000000000e+01 0.000000000000e+00 0.000000000000e+00 0.000000000000e+00
9.900000000000e+02 0.000000000000e+00 1.150000000000e+01 0.000000000000e+00 0.000000000000e+00 0.000000000000e+00
9.890000000000e+02 0.000000000000e+00 1.250000000000e+01 0.000000000000e+00 0.000000000000e+00 0.000000000000e+00
9.900000000000e+02 0.000000000000e+00 1.250000000000e+01 0.000000000000e+00 0.000000000000e+00 0.000000000000e+00
9.890000000000e+02 0.000000000000e+00 1.350000000000e+01 0.000000000000e+00 0.000000000000e+00 0.000000000000e+00
9.900000000000e+02 0.000000000000e+00 1.350000000000e+01 0.000000000000e+00 0.000000000000e+00 0.000000000000e+00
9.890000000000e+02 0.000000000000e+00 1.450000000000e+01 0.000000000000e+00 0.000000000000e+00 0.000000000000e+00
9.900000000000e+02 0.000000000000e+00 1.450000000000e+01 0.000000000000e+00 0.000000000000e+00 0.000000000000e+00
9.890000000000e+02 0.000000000000e+00 1.550000000000e+01 0.000000000000e+00 0.000000000000e+00 0.000000000000e+00
9.900000000000e+02 0.000000000000e+00 1.550000000000e+01 0.000000000000e+00 0.000000000000e+00 0.000000000000e+00
9.890000000000e+02 0.000000000000e+00 1.650000000000e+01 0.000000000000e+00 0.000000000000e+00 0.000000000000e+00
9.900000000000e+02 0.000000000000e+00 1.650000000000e+01 0.000000000000e+00 0.000000000000e+00 0.000000000000e+00
9.890000000000e+02 0.000000000000e+00 1.750000000000e+01 0.000000000000e+00 0.000000000000e+00 0.000000000000e+00
9.900000000000e+02 0.000000000000e+00 1.750000000000e+01 0.000000000000e+00 0.000000000000e+00 0.000000000000e+00
9.890000000000e+02 0.000000000000e+00 1.850000000000e+01 0.000000000000e+00 0.000000000000e+00 0.000000000000e+00
9.900000000000e+02 0.000000000000e+00 1.850000000000e+01 0.000000000000e+00 0.000000000000e+00 0.000000000000e+00
9.890000000000e+02 0.000000000000e+00 1.950000000000e+01 0.000000000000e+00 0.000000000000e+00 0.000000000000e+00
9.900000000000e+02 0.000000000000e+00 1.950000000000e+01 0.000000000000e+00 0.000000000000e+00 0.000000000000e+00
9.890000000000e+02 0.000000000000e+00 2.050000000000e+01 0.000000000000e+00 0.000000000000e+00 0.000000000000e+00
9.900000000000e+02 0.000000000000e+00 2.050000000000e+01 0.000000000000e+00 0.000000000000e+00 0.000000000000e+00
9.890000000000e+02 0.000000000000e+00 2.150000000000e+01 0.000000000000e+00 0.000000000000e+00 0.000000000000e+00
9.900000000000e+02 0.000000000000e+00 2.150000000000e+01 0.000000000000e+00 0.000000000000e+00 0.000000000000e+00
9.890000000000e+02 0.000000000000e+00 2.250000000000e+01 0.000000000000e+00 0.000000000000e+00 0.000000000000e+00
9.900000000000e+02 0.000000000000e+00 2.250000000000e+01 0.000000000000e+00 0.000000000000e+00 0.000000000000e+00
9.890000000000e+02 0.000000000000e+00 2.350000000000e+01 0.000000000000e+00 0.000000000000e+00 0.000000000000e+00
9.900000000000e+02 0.000000000000e+00 2.350000000000e+01 0.000000000000e+00 0.000000000000e+00 0.000000000000e+00
9.890000000000e+02 0.000000000000e+00 2.450000000000e+01 0.000000000000e+00 0.000000000000e+00 0.000000000000e+00
9.900000000000e+02 0.000000000000e+00 2.450000000000e+01 0.000000000000e+00 0.000000000000e+00 0.000000000000e+00
9.890000000000e+02 0.000000000000e+00 2.550000000000e+01 0.000000000000e+00 0.000000000000e+00 0.000000000000e+00
9.900000000000e+02 0.000000000000e+00 2.550000000000e+01 0.000000000000e+00 0.000000000000e+00 0.000000000000e+00
9.890000000000e+02 0.000000000000e+00 2.650000000000e+01 0.000000000000e+00 0.000000000000e+00 0.000000000000e+00
9.900000000000e+02 0.000000000000e+00 2.650000000000e+01 0.000000000000e+00 0.000000000000e+00 0.000000000000e+00
9.890000000000e+02 0.000000000000e+00 2.750000000000e+01 0.000000000000e+00 0.000000000000e+00 0.000000000000e+00
9.900000000000e+02 0.000000000000e+00 2.750000000000e+01 0.000000000000e+00 0.000000000000e+00 0.000000000000e+00
9.890000000000e+02 0.000000000000e+00 2.850000000000e+01 0.000000000000e+00 0.000000000000e+00 0.000000000000e+00
9.900000000000e+02 0.000000000000e+00 2.850000000000e+01 0.000000000000e+00 0.000000000000e+00 0.000000000000e+00
9.890000000000e+02 0.000000000000e+00 2.950000000000e+01 0.000000000000e+00 0.000000000000e+00 0.000000000000e+00
9.900000000000e+02 0.000000000000e+00 2.950000000000e+01 0.000000000000e+00 0.000000000000e+00 0.000000000000e+00
VARIABLES = "X","Y","Z",VELOCITY1_X,VELOCITY1_Y,VELOCITY1_Z
ZONE T="1.797693134862e+308s", 
9.890000000000e+02 0.000000000000e+00 5.000000000000e-01 1.342482038659e-06 -5.894279988311e-11 0.000000000000e+00
9.900000000000e+02 0.000000000000e+00 5.000000000000e-01 1.342590360515e-06 -5.355488752348e-11 0.000000000000e+00
9.890000000000e+02 0.000000000000e+00 1.500000000000e+00 2.569666163365e-08 -1.190178110391e-10 0.000000000000e+00
9.900000000000e+02 0.000000000000e+00 1.500000000000e+00 2.569873678432e-08 -1.081386258903e-10 0.000000000000e+00
9.890000000000e+02 0.000000000000e+00 2.500000000000e+00 3.940213155570e-09 -1.203285274896e-10 0.000000000000e+00
9.900000000000e+02 0.000000000000e+00 2.500000000000e+00 3.940534953080e-09 -1.093295546047e-10 0.000000000000e+00
9.890000000000e+02 0.000000000000e+00 3.500000000000e+00 6.060376121037e-08 -1.233119347742e-10 0.000000000000e+00
9.900000000000e+02 0.000000000000e+00 3.500000000000e+00 6.060891076281e-08 -1.120406139921e-10 0.000000000000e+00
9.890000000000e+02 0.000000000000e+00 4.500000000000e+00 1.479405266546e-08 -1.268071132653e-10 0.000000000000e+00
9.900000000000e+02 0.000000000000e+00 4.500000000000e+00 1.479531473099e-08 -1.152167161230e-10 0.000000000000e+00
9.890000000000e+02 0.000000000000e+00 5.500000000000e+00 9.993401486221e-07 -1.743916971664e-10 0.000000000000e+00
9.900000000000e+02 0.000000000000e+00 5.500000000000e+00 9.994263340277e-07 -1.584588044980e-10 0.000000000000e+00
9.890000000000e+02 0.000000000000e+00 6.500000000000e+00 3.162514544351e-09 -2.214431836905e-10 0.000000000000e+00
9.900000000000e+02 0.000000000000e+00 6.500000000000e+00 3.162790849260e-09 -2.012165430317e-10 0.000000000000e+00
9.890000000000e+02 0.000000000000e+00 7.500000000000e+00 8.155343716342e-10 -2.216517638377e-10 0.000000000000e+00
9.900000000000e+02 0.000000000000e+00 7.500000000000e+00 8.156161596617e-10 -2.014061535321e-10 0.000000000000e+00
9.890000000000e+02 0.000000000000e+00 8.500000000000e+00 2.279884170493e-08 -2.233609770372e-10 0.000000000000e+00
9.900000000000e+02 0.000000000000e+00 8.500000000000e+00 2.280187912593e-08 -2.029612429246e-10 0.000000000000e+00
9.890000000000e+02 0.000000000000e+00 9.500000000000e+00 8.058376209869e-07 -2.839086458968e-10 0.000000000000e+00
9.900000000000e+02 0.000000000000e+00 9.500000000000e+00 8.059459563678e-07 -2.580505518213e-10 0.000000000000e+00
9.890000000000e+02 0.000000000000e+00 1.050000000000e+01 4.731552952025e-08 -3.462817357267e-10 0.000000000000e+00
9.900000000000e+02 0.000000000000e+00 1.050000000000e+01 4.732190370309e-08 -3.148009779418e-10 0.000000000000e+00
9.890000000000e+02 0.000000000000e+00 1.150000000000e+01 2.449603367010e-08 -3.516066401972e-10 0.000000000000e+00
9.900000000000e+02 0.000000000000e+00 1.150000000000e+01 2.449938502218e-08 -3.196463748939e-10 0.000000000000e+00
9.890000000000e+02 0.000000000000e+00 1.250000000000e+01 1.929703708860e-10 -3.534885786005e-10 0.000000000000e+00
9.900000000000e+02 0.000000000000e+00 1.250000000000e+01 1.930078709013e-10 -3.213591967057e-10 0.000000000000e+00
9.890000000000e+02 0.000000000000e+00 1.350000000000e+01 6.856781387396e-07 -5.609235749141e-10 0.000000000000e+00
9.900000000000e+02 0.000000000000e+00 1.350000000000e+01 6.860615735099e-07 -5.112245322861e-10 0.000000000000e+00
9.890000000000e+02 0.000000000000e+00 1.450000000000e+01 2.556251164153e-08 -7.762963461381e-10 0.000000000000e+00
9.900000000000e+02 0.000000000000e+00 1.450000000000e+01 2.557692230657e-08 -7.083610671542e-10 0.000000000000e+00
9.890000000000e+02 0.000000000000e+00 1.550000000000e+01 1.342214457478e-08 -7.888341923465e-10 0.000000000000e+00
9.900000000000e+02 0.000000000000e+00 1.550000000000e+01 1.343022755130e-08 -7.198543255716e-10 0.000000000000e+00
9.890000000000e+02 0.000000000000e+00 1.650000000000e+01 5.487507092272e-08 -8.132418876691e-10 0.000000000000e+00
9.900000000000e+02 0.000000000000e+00 1.650000000000e+01 5.491152945633e-08 -7.422844627602e-10 0.000000000000e+00
9.890000000000e+02 0.000000000000e+00 1.750000000000e+01 2.067545155182e-08 -8.409508980418e-10 0.000000000000e+00
9.900000000000e+02 0.000000000000e+00 1.750000000000e+01 2.068963338632e-08 -7.677643363263e-10 0.000000000000e+00
9.890000000000e+02 0.000000000000e+00 1.850000000000e+01 3.996508349412e-09 -8.506775341784e-10 0.000000000000e+00
9.900000000000e+02 0.000000000000e+00 1.850000000000e+01 3.999552113946e-09 -7.767243883466e-10 0.000000000000e+00
9.890000000000e+02 0.000000000000e+00 1.950000000000e+01 1.390908680711e-08 -8.602665673842e-10 0.000000000000e+00
9.900000000000e+02 0.000000000000e+00 1.950000000000e+01 1.392308840622e-08 -7.856165830814e-10 0.000000000000e+00
9.890000000000e+02 0.000000000000e+00 2.050000000000e+01 1.849567318674e-08 -8.789471081711e-10 0.000000000000e+00
9.900000000000e+02 0.000000000000e+00 2.050000000000e+01 1.851572399459e-08 -8.029657982567e-10 0.000000000000e+00
9.890000000000e+02 0.000000000000e+00 2.150000000000e+01 7.237665612562e-08 -9.343228066887e-10 0.000000000000e+00
9.900000000000e+02 0.000000000000e+00 2.150000000000e+01 7.245939237218e-08 -8.544632180362e-10 0.000000000000e+00
9.890000000000e+02 0.000000000000e+00 2.250000000000e+01 6.105203198412e-07 -1.357353615399e-09 0.000000000000e+00
9.900000000000e+02 0.000000000000e+00 2.250000000000e+01 6.112295192217e-07 -1.248097140197e-09 0.000000000000e+00
9.890000000000e+02 0.000000000000e+00 2.350000000000e+01 1.826764852110e-07 -1.851055531425e-09 0.000000000000e+00
9.900000000000e+02 0.000000000000e+00 2.350000000000e+01 1.828903169075e-07 -1.707638857179e-09 0.000000000000e+00
9.890000000000e+02 0.000000000000e+00 2.450000000000e+01 3.689988058422e-09 -1.970193020384e-09 0.000000000000e+00
9.900000000000e+02 0.000000000000e+00 2.450000000000e+01 3.695166143058e-09 -1.818757293408e-09 0.000000000000e+00
9.890000000000e+02 0.000000000000e+00 2.550000000000e+01 4.195465255885e-07 -2.608299508622e-09 0.000000000000e+00
9.900000000000e+02 0.000000000000e+00 2.550000000000e+01 4.207818760982e-07 -2.440789150967e-09 0.000000000000e+00
9.890000000000e+02 0.000000000000e+00 2.650000000000e+01 1.793857307350e-09 -3.249003837940e-09 0.000000000000e+00
9.900000000000e+02 0.000000000000e+00 2.650000000000e+01 1.801072190394e-09 -3.065921709437e-09 0.000000000000e+00
9.890000000000e+02 0.000000000000e+00 2.750000000000e+01 9.887155954743e-08 -3.794970817568e-09 0.000000000000e+00
9.900000000000e+02 0.000000000000e+00 2.750000000000e+01 1.000142514457e-07 -3.651365418792e-09 0.000000000000e+00
9.890000000000e+02 0.000000000000e+00 2.850000000000e+01 1.285408818065e-07 -5.039705707547e-09 0.000000000000e+00
9.900000000000e+02 0.000000000000e+00 2.850000000000e+01 1.300407221958e-07 -4.986573573560e-09 0.000000000000e+00
9.890000000000e+02 0.000000000000e+00 2.950000000000e+01 2.225051773546e-09 -5.757365297299e-09 0.000000000000e+00
9.900000000000e+02 0.000000000000e+00 2.950000000000e+01 2.251090262981e-09 -5.756472675741e-09 0.000000000000e+00
VARIABLES = "X","Y","Z",VELOCITY1_X,VELOCITY1_Y,VELOCITY1_Z
ZONE T="0.000000000000e+00s", 
9.890000000000e+02 0.000000000000e+00 5.000000000000e-01 0.000000000000e+00 0.000000000000e+00 0.000000000000e+00
9.900000000000e+02 0.000000000000e+00 5.000000000000e-01 0.000000000000e+00 0.000000000000e+00 0.000000000000e+00
9.890000000000e+02 0.000000000000e+00 1.500000000000e+00 0.000000000000e+00 0.000000000000e+00 0.000000000000e+00
9.900000000000e+02 0.000000000000e+00 1.500000000000e+00 0.000000000000e+00 0.000000000000e+00 0.000000000000e+00
9.890000000000e+02 0.000000000000e+00 2.500000000000e+00 0.000000000000e+00 0.000000000000e+00 0.000000000000e+00
9.900000000000e+02 0.000000000000e+00 2.500000000000e+00 0.000000000000e+00 0.000000000000e+00 0.000000000000e+00
9.890000000000e+02 0.000000000000e+00 3.500000000000e+00 0.000000000000e+00 0.000000000000e+00 0.000000000000e+00
9.900000000000e+02 0.000000000000e+00 3.500000000000e+00 0.000000000000e+00 0.000000000000e+00 0.000000000000e+00
9.890000000000e+02 0.000000000000e+00 4.500000000000e+00 0.000000000000e+00 0.000000000000e+00 0.000000000000e+00
9.900000000000e+02 0.000000000000e+00 4.500000000000e+00 0.000000000000e+00 0.000000000000e+00 0.000000000000e+00
9.890000000000e+02 0.000000000000e+00 5.500000000000e+00 0.000000000000e+00 0.000000000000e+00 0.000000000000e+00
9.900000000000e+02 0.000000000000e+00 5.500000000000e+00 0.000000000000e+00 0.000000000000e+00 0.000000000000e+00
9.890000000000e+02 0.000000000000e+00 6.500000000000e+00 0.000000000000e+00 0.000000000000e+00 0.000000000000e+00
9.900000000000e+02 0.000000000000e+00 6.500000000000e+00 0.000000000000e+00 0.000000000000e+00 0.000000000000e+00
9.890000000000e+02 0.000000000000e+00 7.500000000000e+00 0.000000000000e+00 0.000000000000e+00 0.000000000000e+00
9.900000000000e+02 0.000000000000e+00 7.500000000000e+00 0.000000000000e+00 0.000000000000e+00 0.000000000000e+00
9.890000000000e+02 0.000000000000e+00 8.500000000000e+00 0.000000000000e+00 0.000000000000e+00 0.000000000000e+00
9.900000000000e+02 0.000000000000e+00 8.500000000000e+00 0.000000000000e+00 0.000000000000e+00 0.000000000000e+00
9.890000000000e+02 0.000000000000e+00 9.500000000000e+00 0.000000000000e+00 0.000000000000e+00 0.000000000000e+00
9.900000000000e+02 0.000000000000e+00 9.500000000000e+00 0.000000000000e+00 0.000000000000e+00 0.000000000000e+00
9.890000000000e+02 0.000000000000e+00 1.050000000000e+01 0.000000000000e+00 0.000000000000e+00 0.000000000000e+00
9.900000000000e+02 0.000000000000e+00 1.050000000000e+01 0.000000000000e+00 0.000000000000e+00 0.000000000000e+00
9.890000000000e+02 0.000000000000e+00 1.150000000000e+01 0.000000000000e+00 0.000000000000e+00 0.000000000000e+00
9.900000000000e+02 0.000000000000e+00 1.150000000000e+01 0.000000000000e+00 0.000000000000e+00 0.000000000000e+00
9.890000000000e+02 0.000000000000e+00 1.250000000000e+01 0.000000000000e+00 0.000000000000e+00 0.000000000000e+00
9.900000000000e+02 0.000000000000e+00 1.250000000000e+01 0.000000000000e+00 0.000000000000e+00 0.000000000000e+00
9.890000000000e+02 0.000000000000e+00 1.350000000000e+01 0.000000000000e+00 0.000000000000e+00 0.000000000000e+00
9.900000000000e+02 0.000000000000e+00 1.350000000000e+01 0.000000000000e+00 0.000000000000e+00 0.000000000000e+00
9.890000000000e+02 0.000000000000e+00 1.450000000000e+01 0.000000000000e+00 0.000000000000e+00 0.000000000000e+00
9.900000000000e+02 0.000000000000e+00 1.450000000000e+01 0.000000000000e+00 0.000000000000e+00 0.000000000000e+00
9.890000000000e+02 0.000000000000e+00 1.550000000000e+01 0.000000000000e+00 0.000000000000e+00 0.000000000000e+00
9.900000000000e+02 0.000000000000e+00 1.550000000000e+01 0.000000000000e+00 0.000000000000e+00 0.000000000000e+00
9.890000000000e+02 0.000000000000e+00 1.650000000000e+01 0.000000000000e+00 0.000000000000e+00 0.000000000000e+00
9.900000000000e+02 0.000000000000e+00 1.650000000000e+01 0.000000000000e+00 0.000000000000e+00 0.000000000000e+00
9.890000000000e+02 0.000000000000e+00 1.750000000000e+01 0.000000000000e+00 0.000000000000e+00 0.000000000000e+00
9.900000000000e+02 0.000000000000e+00 1.750000000000e+01 0.000000000000e+00 0.000000000000e+00 0.000000000000e+00
9.890000000000e+02 0.000000000000e+00 1.850000000000e+01 0.000000000000e+00 0.000000000000e+00 0.000000000000e+00
9.900000000000e+02 0.000000000000e+00 1.850000000000e+01 0.000000000000e+00 0.000000000000e+00 0.000000000000e+00
9.890000000000e+02 0.000000000000e+00 1.950000000000e+01 0.000000000000e+00 0.000000000000e+00 0.000000000000e+00
9.900000000000e+02 0.000000000000e+00 1.950000000000e+01 0.000000000000e+00 0.000000000000e+00 0.000000000000e+00
9.890000000000e+02 0.000000000000e+00 2.050000000000e+01 0.000000000000e+00 0.000000000000e+00 0.000000000000e+00
9.900000000000e+02 0.000000000000e+00 2.050000000000e+01 0.000000000000e+00 0.000000000000e+00 0.000000000000e+00
9.890000000000e+02 0.000000000000e+00 2.150000000000e+01 0.000000000000e+00 0.000000000000e+00 0.000000000000e+00
9.900000000000e+02 0.000000000000e+00 2.150000000000e+01 0.000000000000e+00 0.000000000000e+00 0.000000000000e+00
9.890000000000e+02 0.000000000000e+00 2.250000000000e+01 0.000000000000e+00 0.000000000000e+00 0.000000000000e+00
9.900000000000e+02 0.000000000000e+00 2.250000000000e+01 0.000000000000e+00 0.000000000000e+00 0.000000000000e+00
9.890000000000e+02 0.000000000000e+00 2.350000000000e+01 0.000000000000e+00 0.000000000000e+00 0.000000000000e+00
9.900000000000e+02 0.000000000000e+00 2.350000000000e+01 0.000000000000e+00 0.000000000000e+00 0.000000000000e+00
9.890000000000e+02 0.000000000000e+00 2.450000000000e+01 0.000000000000e+00 0.000000000000e+00 0.000000000000e+00
9.900000000000e+02 0.000000000000e+00 2.450000000000e+01 0.000000000000e+00 0.000000000000e+00 0.000000000000e+00
9.890000000000e+02 0.000000000000e+00 2.550000000000e+01 0.000000000000e+00 0.000000000000e+00 0.000000000000e+00
9.900000000000e+02 0.000000000000e+00 2.550000000000e+01 0.000000000000e+00 0.000000000000e+00 0.000000000000e+00
9.890000000000e+02 0.000000000000e+00 2.650000000000e+01 0.000000000000e+00 0.000000000000e+00 0.000000000000e+00
9.900000000000e+02 0.000000000000e+00 2.650000000000e+01 0.000000000000e+00 0.000000000000e+00 0.000000000000e+00
9.890000000000e+02 0.000000000000e+00 2.750000000000e+01 0.000000000000e+00 0.000000000000e+00 0.000000000000e+00
9.900000000000e+02 0.000000000000e+00 2.750000000000e+01 0.000000000000e+00 0.000000000000e+00 0.000000000000e+00
9.890000000000e+02 0.000000000000e+00 2.850000000000e+01 0.000000000000e+00 0.000000000000e+00 0.000000000000e+00
9.900000000000e+02 0.000000000000e+00 2.850000000000e+01 0.000000000000e+00 0.000000000000e+00 0.000000000000e+00
9.890000000000e+02 0.000000000000e+00 2.950000000000e+01 0.000000000000e+00 0.000000000000e+00 0.000000000000e+00
9.900000000000e+02 0.000000000000e+00 2.950000000000e+01 0.000000000000e+00 0.000000000000e+00 0.000000000000e+00
VARIABLES = "X","Y","Z",VELOCITY1_X,VELOCITY1_Y,VELOCITY1_Z
ZONE T="8.640000000000e+04s", 
9.890000000000e+02 0.000000000000e+00 5.000000000000e-01 1.341993069942e-06 -5.823737066725e-11 0.000000000000e+00
9.900000000000e+02 0.000000000000e+00 5.000000000000e-01 1.342100502206e-06 -5.291308446283e-11 0.000000000000e+00
9.890000000000e+02 0.000000000000e+00 1.500000000000e+00 2.568728505208e-08 -1.173875187655e-10 0.000000000000e+00
9.900000000000e+02 0.000000000000e+00 1.500000000000e+00 2.568934307990e-08 -1.066553029846e-10 0.000000000000e+00
9.890000000000e+02 0.000000000000e+00 2.500000000000e+00 3.938734884186e-09 -1.182138856206e-10 0.000000000000e+00
9.900000000000e+02 0.000000000000e+00 2.500000000000e+00 3.939053848039e-09 -1.074060462065e-10 0.000000000000e+00
9.890000000000e+02 0.000000000000e+00 3.500000000000e+00 6.057845305210e-08 -1.206487495109e-10 0.000000000000e+00
9.900000000000e+02 0.000000000000e+00 3.500000000000e+00 6.058354684361e-08 -1.096184793631e-10 0.000000000000e+00
9.890000000000e+02 0.000000000000e+00 4.500000000000e+00 1.478779104053e-08 -1.235723862721e-10 0.000000000000e+00
9.900000000000e+02 0.000000000000e+00 4.500000000000e+00 1.478903913811e-08 -1.122750514702e-10 0.000000000000e+00
9.890000000000e+02 0.000000000000e+00 5.500000000000e+00 9.988998801856e-07 -1.700516094905e-10 0.000000000000e+00
9.900000000000e+02 0.000000000000e+00 5.500000000000e+00 9.989850526974e-07 -1.545110705155e-10 0.000000000000e+00
9.890000000000e+02 0.000000000000e+00 6.500000000000e+00 3.161065639827e-09 -2.159781719974e-10 0.000000000000e+00
9.900000000000e+02 0.000000000000e+00 6.500000000000e+00 3.161338452439e-09 -1.962447391657e-10 0.000000000000e+00
9.890000000000e+02 0.000000000000e+00 7.500000000000e+00 8.149875215012e-10 -2.153098505843e-10 0.000000000000e+00
9.900000000000e+02 0.000000000000e+00 7.500000000000e+00 8.150675295137e-10 -1.956370737775e-10 0.000000000000e+00
9.890000000000e+02 0.000000000000e+00 8.500000000000e+00 2.276991048858e-08 -2.154388224833e-10 0.000000000000e+00
9.900000000000e+02 0.000000000000e+00 8.500000000000e+00 2.277283116739e-08 -1.957547786784e-10 0.000000000000e+00
9.890000000000e+02 0.000000000000e+00 9.500000000000e+00 8.047933099924e-07 -2.719407310585e-10 0.000000000000e+00
9.900000000000e+02 0.000000000000e+00 9.500000000000e+00 8.048974133650e-07 -2.471529623087e-10 0.000000000000e+00
9.890000000000e+02 0.000000000000e+00 1.050000000000e+01 4.725400123414e-08 -3.301862014059e-10 0.000000000000e+00
9.900000000000e+02 0.000000000000e+00 1.050000000000e+01 4.726012503509e-08 -3.001372346604e-10 0.000000000000e+00
9.890000000000e+02 0.000000000000e+00 1.150000000000e+01 2.446336527608e-08 -3.335464801948e-10 0.000000000000e+00
9.900000000000e+02 0.000000000000e+00 1.150000000000e+01 2.446657940755e-08 -3.031946973409e-10 0.000000000000e+00
9.890000000000e+02 0.000000000000e+00 1.250000000000e+01 1.924833162395e-10 -3.311964430182e-10 0.000000000000e+00
9.900000000000e+02 0.000000000000e+00 1.250000000000e+01 1.925177453724e-10 -3.010548956493e-10 0.000000000000e+00
9.890000000000e+02 0.000000000000e+00 1.350000000000e+01 6.787140708868e-07 -4.949159933435e-10 0.000000000000e+00
9.900000000000e+02 0.000000000000e+00 1.350000000000e+01 6.790413445907e-07 -4.507757811585e-10 0.000000000000e+00
9.890000000000e+02 0.000000000000e+00 1.450000000000e+01 2.530173734474e-08 -6.629297650617e-10 0.000000000000e+00
9.900000000000e+02 0.000000000000e+00 1.450000000000e+01 2.531402080061e-08 -6.044338702862e-10 0.000000000000e+00
9.890000000000e+02 0.000000000000e+00 1.550000000000e+01 1.328000574683e-08 -6.569388338061e-10 0.000000000000e+00
9.900000000000e+02 0.000000000000e+00 1.550000000000e+01 1.328682042937e-08 -5.990222712175e-10 0.000000000000e+00
9.890000000000e+02 0.000000000000e+00 1.650000000000e+01 5.425538606313e-08 -6.595418256407e-10 0.000000000000e+00
9.900000000000e+02 0.000000000000e+00 1.650000000000e+01 5.428561821932e-08 -6.015117165822e-10 0.000000000000e+00
9.890000000000e+02 0.000000000000e+00 1.750000000000e+01 2.043635419767e-08 -6.640905601425e-10 0.000000000000e+00
9.900000000000e+02 0.000000000000e+00 1.750000000000e+01 2.044804544654e-08 -6.057965799504e-10 0.000000000000e+00
9.890000000000e+02 0.000000000000e+00 1.850000000000e+01 3.946107976346e-09 -6.516158787897e-10 0.000000000000e+00
9.900000000000e+02 0.000000000000e+00 1.850000000000e+01 3.948566285451e-09 -5.944762702553e-10 0.000000000000e+00
9.890000000000e+02 0.000000000000e+00 1.950000000000e+01 1.368353525608e-08 -6.333168605926e-10 0.000000000000e+00
9.900000000000e+02 0.000000000000e+00 1.950000000000e+01 1.369428451829e-08 -5.778589450955e-10 0.000000000000e+00
9.890000000000e+02 0.000000000000e+00 2.050000000000e+01 1.817236464767e-08 -6.187494419038e-10 0.000000000000e+00
9.900000000000e+02 0.000000000000e+00 2.050000000000e+01 1.818753662299e-08 -5.647311207673e-10 0.000000000000e+00
9.890000000000e+02 0.000000000000e+00 2.150000000000e+01 7.103760827206e-08 -6.297092383952e-10 0.000000000000e+00
9.900000000000e+02 0.000000000000e+00 2.150000000000e+01 7.109947847752e-08 -5.752744231958e-10 0.000000000000e+00
9.890000000000e+02 0.000000000000e+00 2.250000000000e+01 5.990428761173e-07 -9.146474917391e-10 0.000000000000e+00
9.900000000000e+02 0.000000000000e+00 2.250000000000e+01 5.995711598663e-07 -8.396603479216e-10 0.000000000000e+00
9.890000000000e+02 0.000000000000e+00 2.350000000000e+01 1.792291221514e-07 -1.251820734886e-09 0.000000000000e+00
9.900000000000e+02 0.000000000000e+00 2.350000000000e+01 1.793881547438e-07 -1.152524503052e-09 0.000000000000e+00
9.890000000000e+02 0.000000000000e+00 2.450000000000e+01 3.614467763202e-09 -1.303998376184e-09 0.000000000000e+00
9.900000000000e+02 0.000000000000e+00 2.450000000000e+01 3.618185897819e-09 -1.201429077978e-09 0.000000000000e+00
9.890000000000e+02 0.000000000000e+00 2.550000000000e+01 4.065277511625e-07 -1.668259160076e-09 0.000000000000e+00
9.900000000000e+02 0.000000000000e+00 2.550000000000e+01 4.073307058360e-07 -1.555576797084e-09 0.000000000000e+00
9.890000000000e+02 0.000000000000e+00 2.650000000000e+01 1.731773245455e-09 -2.011606300813e-09 0.000000000000e+00
9.900000000000e+02 0.000000000000e+00 2.650000000000e+01 1.736307554479e-09 -1.890306965151e-09 0.000000000000e+00
9.890000000000e+02 0.000000000000e+00 2.750000000000e+01 9.299084492160e-08 -2.190668251619e-09 0.000000000000e+00
9.900000000000e+02 0.000000000000e+00 2.750000000000e+01 9.366499844028e-08 -2.097262645323e-09 0.000000000000e+00
9.890000000000e+02 0.000000000000e+00 2.850000000000e+01 1.208470840049e-07 -2.767019164656e-09 0.000000000000e+00
9.900000000000e+02 0.000000000000e+00 2.850000000000e+01 1.217315803130e-07 -2.726728592559e-09 0.000000000000e+00
9.890000000000e+02 0.000000000000e+00 2.950000000000e+01 2.092232267798e-09 -2.991677540981e-09 0.000000000000e+00
9.900000000000e+02 0.000000000000e+00 2.950000000000e+01 2.107635550474e-09 -2.986304620540e-09 0.000000000000e+00
VARIABLES = "X","Y","Z",VELOCITY1_X,VELOCITY1_Y,VELOCITY1_Z
ZONE T="1.728000000000e+05s", 
9.890000000000e+02 0.000000000000e+00 5.000000000000e-01 1.341383262400e-06 -5.785512222827e-11 0.000000000000e+00
9.900000000000e+02 0.000000000000e+00 5.000000000000e-01 1.341490097569e-06 -5.256572343401e-11 0.000000000000e+00
9.890000000000e+02 0.000000000000e+00 1.500000000000e+00 2.567560407331e-08 -1.165561571574e-10 0.000000000000e+00
9.900000000000e+02 0.000000000000e+00 1.500000000000e+00 2.567765065874e-08 -1.058999260233e-10 0.000000000000e+00
9.890000000000e+02 0.000000000000e+00 2.500000000000e+00 3.936924967829e-09 -1.172725601819e-10 0.000000000000e+00
9.900000000000e+02 0.000000000000e+00 2.500000000000e+00 3.937242153989e-09 -1.065509121420e-10 0.000000000000e+00
9.890000000000e+02 0.000000000000e+00 3.500000000000e+00 6.054950043178e-08 -1.196121451820e-10 0.000000000000e+00
9.900000000000e+02 0.000000000000e+00 3.500000000000e+00 6.055456584103e-08 -1.086769839537e-10 0.000000000000e+00
9.890000000000e+02 0.000000000000e+00 4.500000000000e+00 1.478069292862e-08 -1.224479082927e-10 0.000000000000e+00
9.900000000000e+02 0.000000000000e+00 4.500000000000e+00 1.478193409532e-08 -1.112539434963e-10 0.000000000000e+00
9.890000000000e+02 0.000000000000e+00 5.500000000000e+00 9.984145292216e-07 -1.686110777618e-10 0.000000000000e+00
9.900000000000e+02 0.000000000000e+00 5.500000000000e+00 9.984992351365e-07 -1.532032439221e-10 0.000000000000e+00
9.890000000000e+02 0.000000000000e+00 6.500000000000e+00 3.159512436795e-09 -2.142462109591e-10 0.000000000000e+00
9.900000000000e+02 0.000000000000e+00 6.500000000000e+00 3.159783797385e-09 -1.946726131423e-10 0.000000000000e+00
9.890000000000e+02 0.000000000000e+00 7.500000000000e+00 8.145377678814e-10 -2.137499951895e-10 0.000000000000e+00
9.900000000000e+02 0.000000000000e+00 7.500000000000e+00 8.146174996608e-10 -1.942220246367e-10 0.000000000000e+00
9.890000000000e+02 0.000000000000e+00 8.500000000000e+00 2.275408436890e-08 -2.145360299297e-10 0.000000000000e+00