 TITLE = "Profiles along polylines"
 VARIABLES = "DIST" "HEAD" "VELOCITY_X1" "VELOCITY_Y1" "VELOCITY_Z1" 
 ZONE T="TIME=0.000000000000e+00"
0.000000000000e+00 3.050720635615e+01 0.000000000000e+00 0.000000000000e+00 0.000000000000e+00 
1.000000000000e+00 3.050720690875e+01 0.000000000000e+00 0.000000000000e+00 0.000000000000e+00 
2.000000000000e+00 3.050726520443e+01 0.000000000000e+00 0.000000000000e+00 0.000000000000e+00 
3.000000000000e+00 3.050764980954e+01 0.000000000000e+00 0.000000000000e+00 0.000000000000e+00 
4.000000000000e+00 3.050767546609e+01 0.000000000000e+00 0.000000000000e+00 0.000000000000e+00 
5.000000000000e+00 3.050778341166e+01 0.000000000000e+00 0.000000000000e+00 0.000000000000e+00 
6.000000000000e+00 3.050778557157e+01 0.000000000000e+00 0.000000000000e+00 0.000000000000e+00 
7.000000000000e+00 3.050864390519e+01 0.000000000000e+00 0.000000000000e+00 0.000000000000e+00 
8.000000000000e+00 3.051200337771e+01 0.000000000000e+00 0.000000000000e+00 0.000000000000e+00 
9.000000000000e+00 3.051212678079e+01 0.000000000000e+00 0.000000000000e+00 0.000000000000e+00 
1.000000000000e+01 3.051213084324e+01 0.000000000000e+00 0.000000000000e+00 0.000000000000e+00 
1.100000000000e+01 3.051221000556e+01 0.000000000000e+00 0.000000000000e+00 0.000000000000e+00 
1.200000000000e+01 3.051236464602e+01 0.000000000000e+00 0.000000000000e+00 0.000000000000e+00 
1.300000000000e+01 3.053246556842e+01 0.000000000000e+00 0.000000000000e+00 0.000000000000e+00 
1.400000000000e+01 3.053247261411e+01 0.000000000000e+00 0.000000000000e+00 0.000000000000e+00 
1.500000000000e+01 3.053267706634e+01 0.000000000000e+00 0.000000000000e+00 0.000000000000e+00 
1.600000000000e+01 3.053306919814e+01 0.000000000000e+00 0.000000000000e+00 0.000000000000e+00 
1.700000000000e+01 3.053316625109e+01 0.000000000000e+00 0.000000000000e+00 0.000000000000e+00 
1.800000000000e+01 3.053342626190e+01 0.000000000000e+00 0.000000000000e+00 0.000000000000e+00 
1.900000000000e+01 3.053478185807e+01 0.000000000000e+00 0.000000000000e+00 0.000000000000e+00 
2.000000000000e+01 3.053517870054e+01 0.000000000000e+00 0.000000000000e+00 0.000000000000e+00 
2.100000000000e+01 3.053547966177e+01 0.000000000000e+00 0.000000000000e+00 0.000000000000e+00 
2.200000000000e+01 3.053555755596e+01 0.000000000000e+00 0.000000000000e+00 0.000000000000e+00 
2.300000000000e+01 3.053556741813e+01 0.000000000000e+00 0.000000000000e+00 0.000000000000e+00 
2.400000000000e+01 3.053560278833e+01 0.000000000000e+00 0.000000000000e+00 0.000000000000e+00 
2.500000000000e+01 3.053739121762e+01 0.000000000000e+00 0.000000000000e+00 0.000000000000e+00 
2.600000000000e+01 3.053740807587e+01 0.000000000000e+00 0.000000000000e+00 0.000000000000e+00 
2.700000000000e+01 3.054152909981e+01 0.000000000000e+00 0.000000000000e+00 0.000000000000e+00 
2.800000000000e+01 3.054161114486e+01 0.000000000000e+00 0.000000000000e+00 0.000000000000e+00 
2.900000000000e+01 3.054167531499e+01 0.000000000000e+00 0.000000000000e+00 0.000000000000e+00 
3.000000000000e+01 3.054541644040e+01 0.000000000000e+00 0.000000000000e+00 0.000000000000e+00 
 TITLE = "Profiles along polylines"
 VARIABLES = "DIST" "HEAD" "VELOCITY_X1" "VELOCITY_Y1" "VELOCITY_Z1" 
 ZONE T="TIME=8.640000000000e+04"
0.000000000000e+00 3.050716874290e+01 3.748065783080e-07 -7.472887432170e-10 0.000000000000e+00 
1.000000000000e+00 3.050716929386e+01 1.909902225367e-07 -1.126954110262e-09 0.000000000000e+00 
2.000000000000e+00 3.050722732855e+01 4.136560029599e-09 -1.512673362100e-09 0.000000000000e+00 
3.000000000000e+00 3.050760911506e+01 8.982303939750e-09 -1.534358214850e-09 0.000000000000e+00 
4.000000000000e+00 3.050763451151e+01 1.049066822019e-08 -1.568583174196e-09 0.000000000000e+00 
5.000000000000e+00 3.050774107097e+01 1.409788404103e-07 -1.866646526193e-09 0.000000000000e+00 
6.000000000000e+00 3.050774320547e+01 1.393601581198e-07 -2.422202136410e-09 0.000000000000e+00 
7.000000000000e+00 3.050859186091e+01 5.516442584504e-10 -2.696028054054e-09 0.000000000000e+00 
8.000000000000e+00 3.051190520984e+01 3.184846928859e-09 -2.694879966969e-09 0.000000000000e+00 
9.000000000000e+00 3.051202645368e+01 1.115856795127e-07 -2.913361248382e-09 0.000000000000e+00 
1.000000000000e+01 3.051203044024e+01 1.148839671047e-07 -3.354638236811e-09 0.000000000000e+00 
1.100000000000e+01 3.051210805562e+01 9.666641527122e-09 -3.591958568027e-09 0.000000000000e+00 
1.200000000000e+01 3.051225920945e+01 3.321292494580e-09 -3.600369665486e-09 0.000000000000e+00 
1.300000000000e+01 3.053178209676e+01 7.882787803576e-08 -3.719095444929e-09 0.000000000000e+00 
1.400000000000e+01 3.053178883656e+01 8.173916713818e-08 -3.966672534433e-09 0.000000000000e+00 
1.500000000000e+01 3.053198134518e+01 4.474228216284e-09 -4.059037410601e-09 0.000000000000e+00 
1.600000000000e+01 3.053234339367e+01 7.793968003279e-09 -4.001343893607e-09 0.000000000000e+00 
1.700000000000e+01 3.053243120698e+01 8.610119704372e-09 -3.949628192511e-09 0.000000000000e+00 
1.800000000000e+01 3.053266163805e+01 2.806229428508e-09 -3.884018488212e-09 0.000000000000e+00 
1.900000000000e+01 3.053383548516e+01 2.001408499373e-09 -3.794301850622e-09 0.000000000000e+00 
2.000000000000e+01 3.053416964806e+01 3.597683900368e-09 -3.693562972733e-09 0.000000000000e+00 
2.100000000000e+01 3.053441535852e+01 1.003636475863e-08 -3.601302583252e-09 0.000000000000e+00 
2.200000000000e+01 3.053447696190e+01 7.529754238415e-08 -3.648418508999e-09 0.000000000000e+00 
2.300000000000e+01 3.053448463463e+01 8.744521978258e-08 -3.848907207676e-09 0.000000000000e+00 
2.400000000000e+01 3.053451182470e+01 2.053974917318e-08 -3.934812424367e-09 0.000000000000e+00 
2.500000000000e+01 3.053584706501e+01 4.479359118531e-08 -3.913066109112e-09 0.000000000000e+00 
2.600000000000e+01 3.053585926325e+01 4.457658919030e-08 -3.905170331108e-09 0.000000000000e+00 
2.700000000000e+01 3.053872764230e+01 9.674155758674e-09 -3.761723973112e-09 0.000000000000e+00 
2.800000000000e+01 3.053878053988e+01 2.180363090863e-08 -3.510603859498e-09 0.000000000000e+00 
2.900000000000e+01 3.053881858500e+01 1.253016609426e-08 -3.233612746661e-09 0.000000000000e+00 
3.000000000000e+01 3.054081392060e+01 4.262440830452e-10 -3.076776617976e-09 0.000000000000e+00 
 ZONE T="TIME=1.728000000000e+05"
0.000000000000e+00 3.050710875897e+01 3.748088687170e-07 -7.460533969838e-10 0.000000000000e+00 
1.000000000000e+00 3.050710930902e+01 1.909913896897e-07 -1.124575994564e-09 0.000000000000e+00 
2.000000000000e+00 3.050716720809e+01 4.136585323287e-09 -1.507879188610e-09 0.000000000000e+00 
3.000000000000e+00 3.050754746932e+01 8.982358444644e-09 -1.527068324698e-09 0.000000000000e+00 
4.000000000000e+00 3.050757272629e+01 1.049073180764e-08 -1.558877153033e-09 0.000000000000e+00 
5.000000000000e+00 3.050767855398e+01 1.409796889972e-07 -1.854593941265e-09 0.000000000000e+00 
6.000000000000e+00 3.050768067534e+01 1.393609968706e-07 -2.407973621852e-09 0.000000000000e+00 
7.000000000000e+00 3.050852453391e+01 5.516474684473e-10 -2.680092969599e-09 0.000000000000e+00 
8.000000000000e+00 3.051181744190e+01 3.184862340066e-09 -2.678629717623e-09 0.000000000000e+00 
9.000000000000e+00 3.051193797149e+01 1.115862150391e-07 -2.898161309479e-09 0.000000000000e+00 
1.000000000000e+01 3.051194193956e+01 1.148845183464e-07 -3.340864072640e-09 0.000000000000e+00 
1.100000000000e+01 3.051201927233e+01 9.666687768606e-09 -3.579709473361e-09 0.000000000000e+00 
1.200000000000e+01 3.051216994537e+01 3.321308281121e-09 -3.595472195141e-09 0.000000000000e+00 
1.300000000000e+01 3.053170191642e+01 7.882792445426e-08 -3.750021463549e-09 0.000000000000e+00 
1.400000000000e+01 3.053170876177e+01 8.173921518571e-08 -4.061953297995e-09 0.000000000000e+00 
1.500000000000e+01 3.053190740646e+01 4.474230694578e-09 -4.225694086066e-09 0.000000000000e+00 
1.600000000000e+01 3.053228769701e+01 7.793971852830e-09 -4.242736782628e-09 0.000000000000e+00 
1.700000000000e+01 3.053238169249e+01 8.610123842876e-09 -4.269494753396e-09 0.000000000000e+00 
1.800000000000e+01 3.053263325623e+01 2.806230685699e-09 -4.289093348608e-09 0.000000000000e+00 
1.900000000000e+01 3.053394460628e+01 2.001409090172e-09 -4.303669648738e-09 0.000000000000e+00 
2.000000000000e+01 3.053432949695e+01 3.597684821168e-09 -4.329568572986e-09 0.000000000000e+00 
2.100000000000e+01 3.053462266707e+01 1.003636706883e-08 -4.377746098884e-09 0.000000000000e+00 
2.200000000000e+01 3.053469896701e+01 7.529755930393e-08 -4.572880335221e-09 0.000000000000e+00 
2.300000000000e+01 3.053470869225e+01 8.744523937703e-08 -4.924224541478e-09 0.000000000000e+00 
2.400000000000e+01 3.053474378336e+01 2.053975371805e-08 -5.170989308163e-09 0.000000000000e+00 
2.500000000000e+01 3.053653041560e+01 4.479359515061e-08 -5.354641890797e-09 0.000000000000e+00 
2.600000000000e+01 3.053654747691e+01 4.457659309039e-08 -5.621763182338e-09 0.000000000000e+00 
2.700000000000e+01 3.054079477509e+01 9.674154853452e-09 -5.890042517062e-09 0.000000000000e+00 
2.800000000000e+01 3.054088242479e+01 2.180362879610e-08 -6.181303282781e-09 0.000000000000e+00 
2.900000000000e+01 3.054095364108e+01 1.253016486436e-08 -6.517443136031e-09 0.000000000000e+00 
3.000000000000e+01 3.054529112868e+01 4.262440390317e-10 -6.688338780161e-09 0.000000000000e+00 
 ZONE T="TIME=2.592000000000e+05"
0.000000000000e+00 3.050702685369e+01 3.748105766147e-07 -7.447301555358e-10 0.000000000000e+00 
1.000000000000e+00 3.050702740277e+01 1.909922599902e-07 -1.121842719047e-09 0.000000000000e+00 
2.000000000000e+00 3.050708514223e+01 4.136604212486e-09 -1.502462041819e-09 0.000000000000e+00 
3.000000000000e+00 3.050746372145e+01 8.982399632512e-09 -1.519098441518e-09 0.000000000000e+00 
4.000000000000e+00 3.050748882688e+01 1.049077989776e-08 -1.548341973266e-09 0.000000000000e+00 
5.000000000000e+00 3.050759386089e+01 1.409803329646e-07 -1.841470415927e-09 0.000000000000e+00 
6.000000000000e+00 3.050759596791e+01 1.393616334191e-07 -2.392168866094e-09 0.000000000000e+00 
7.000000000000e+00 3.050843442181e+01 5.516499525266e-10 -2.661557159122e-09 0.000000000000e+00 
8.000000000000e+00 3.051170286797e+01 3.184875314779e-09 -2.657226384124e-09 0.000000000000e+00 
9.000000000000e+00 3.051182236685e+01 1.115866673960e-07 -2.873667519254e-09 0.000000000000e+00 
1.000000000000e+01 3.051182630173e+01 1.148849840130e-07 -3.313186053726e-09 0.000000000000e+00 
1.100000000000e+01 3.051190299927e+01 9.666726862776e-09 -3.548823911692e-09 0.000000000000e+00 
1.200000000000e+01 3.051205231046e+01 3.321321644010e-09 -3.559165433151e-09 0.000000000000e+00 
1.300000000000e+01 3.053136637550e+01 7.882800348299e-08 -3.697303460491e-09 0.000000000000e+00 
1.400000000000e+01 3.053137310631e+01 8.173929705261e-08 -3.981769377496e-09 0.000000000000e+00 
1.500000000000e+01 3.053156727719e+01 4.474235052674e-09 -4.115045190623e-09 0.000000000000e+00 
1.600000000000e+01 3.053193622002e+01 7.793979067828e-09 -4.099575862919e-09 0.000000000000e+00 
1.700000000000e+01 3.053202667910e+01 8.610131719821e-09 -4.091509633755e-09 0.000000000000e+00 
1.800000000000e+01 3.053226674017e+01 2.806233179483e-09 -4.071927544276e-09 0.000000000000e+00 
1.900000000000e+01 3.053350527371e+01 2.001410626164e-09 -4.034764944654e-09 0.000000000000e+00 
2.000000000000e+01 3.053386345034e+01 3.597687472015e-09 -3.994033258460e-09 0.000000000000e+00 
2.100000000000e+01 3.053413154587e+01 1.003637426778e-08 -3.966102498358e-09 0.000000000000e+00 
2.200000000000e+01 3.053420003191e+01 7.529761299642e-08 -4.079771637163e-09 0.000000000000e+00 
2.300000000000e+01 3.053420865934e+01 8.744530169434e-08 -4.347610603607e-09 0.000000000000e+00 
2.400000000000e+01 3.053423950433e+01 2.053976831848e-08 -4.503198099612e-09 0.000000000000e+00 
2.500000000000e+01 3.053578119276e+01 4.479362360331e-08 -4.561390110070e-09 0.000000000000e+00 
2.600000000000e+01 3.053579554671e+01 4.457662137235e-08 -4.648031663615e-09 0.000000000000e+00 
2.700000000000e+01 3.053924854134e+01 9.674159695443e-09 -4.623404562810e-09 0.000000000000e+00 
2.800000000000e+01 3.053931498802e+01 2.180363966687e-08 -4.513653644546e-09 0.000000000000e+00 
2.900000000000e+01 3.053936510860e+01 1.253017109941e-08 -4.384999337916e-09 0.000000000000e+00 
3.000000000000e+01 3.054215594541e+01 4.262442419050e-10 -4.303427184067e-09 0.000000000000e+00 
 ZONE T="TIME=3.456000000000e+05"
0.000000000000e+00 3.050691317517e+01 3.748119342174e-07 -7.428876008052e-10 0.000000000000e+00 
1.000000000000e+00 3.050691372288e+01 1.909929518044e-07 -1.118150268061e-09 0.000000000000e+00 
2.000000000000e+00 3.050697124886e+01 4.136619225288e-09 -1.495071977477e-09 0.000000000000e+00 
3.000000000000e+00 3.050734750583e+01 8.982432410229e-09 -1.507987314141e-09 0.000000000000e+00 
4.000000000000e+00 3.050737239851e+01 1.049081817566e-08 -1.533472359628e-09 0.000000000000e+00 
5.000000000000e+00 3.050747630764e+01 1.409808462271e-07 -1.822817542792e-09 0.000000000000e+00 
6.000000000000e+00 3.050747839422e+01 1.393621407529e-07 -2.369695179153e-09 0.000000000000e+00 
7.000000000000e+00 3.050830917507e+01 5.516519466799e-10 -2.635045740125e-09 0.000000000000e+00 
8.000000000000e+00 3.051154241053e+01 3.184886121886e-09 -2.626043831518e-09 0.000000000000e+00 
9.000000000000e+00 3.051166039212e+01 1.115870447206e-07 -2.837258833244e-09 0.000000000000e+00 
1.000000000000e+01 3.051166427723e+01 1.148853724570e-07 -3.271458584708e-09 0.000000000000e+00 
1.100000000000e+01 3.051174001230e+01 9.666759492033e-09 -3.501742757242e-09 0.000000000000e+00 
1.200000000000e+01 3.051188723622e+01 3.321332807668e-09 -3.505756360585e-09 0.000000000000e+00 
1.300000000000e+01 3.053089161664e+01 7.882809817958e-08 -3.633098885677e-09 0.000000000000e+00 
1.400000000000e+01 3.053089822226e+01 8.173939516724e-08 -3.902332765968e-09 0.000000000000e+00 
1.500000000000e+01 3.053108827539e+01 4.474240340191e-09 -4.019528484529e-09 0.000000000000e+00 
1.600000000000e+01 3.053144791095e+01 7.793988022496e-09 -3.988108884639e-09 0.000000000000e+00 
1.700000000000e+01 3.053153573248e+01 8.610141546850e-09 -3.964271709480e-09 0.000000000000e+00 
1.800000000000e+01 3.053176786148e+01 2.806236330692e-09 -3.929414553276e-09 0.000000000000e+00 
1.900000000000e+01 3.053296060457e+01 2.001412697616e-09 -3.878579421140e-09 0.000000000000e+00 
2.000000000000e+01 3.053330428703e+01 3.597691113988e-09 -3.826231419021e-09 0.000000000000e+00 
2.100000000000e+01 3.053356070027e+01 1.003638428156e-08 -3.788224714125e-09 0.000000000000e+00 
2.200000000000e+01 3.053362602710e+01 7.529768792913e-08 -3.892810718845e-09 0.000000000000e+00 
2.300000000000e+01 3.053363426163e+01 8.744538875673e-08 -4.151973673420e-09 0.000000000000e+00 
2.400000000000e+01 3.053366373428e+01 2.053978877195e-08 -4.300790435181e-09 0.000000000000e+00 
2.500000000000e+01 3.053513542783e+01 4.479366526847e-08 -4.360822009477e-09 0.000000000000e+00 
2.600000000000e+01 3.053514917073e+01 4.457666281786e-08 -4.464310247859e-09 0.000000000000e+00 
2.700000000000e+01 3.053847601897e+01 9.674167650798e-09 -4.490732446109e-09 0.000000000000e+00 
2.800000000000e+01 3.053854109394e+01 2.180365755719e-08 -4.465436379319e-09 0.000000000000e+00 
2.900000000000e+01 3.053859118889e+01 1.253018139262e-08 -4.445339344142e-09 0.000000000000e+00 
3.000000000000e+01 3.054146176976e+01 4.262445885042e-10 -4.426391293797e-09 0.000000000000e+00 
 ZONE T="TIME=4.320000000000e+05"
0.000000000000e+00 3.050670976844e+01 3.748130030944e-07 -7.377292146894e-10 0.000000000000e+00 
1.000000000000e+00 3.050671031235e+01 1.909934962552e-07 -1.107879238954e-09 0.000000000000e+00 
2.000000000000e+00 3.050676724575e+01 4.136631040116e-09 -1.474438406088e-09 0.000000000000e+00 
3.000000000000e+00 3.050713699598e+01 8.982458146481e-09 -1.476684321141e-09 0.000000000000e+00 
4.000000000000e+00 3.050716128696e+01 1.049084824557e-08 -1.491257320422e-09 0.000000000000e+00 
5.000000000000e+00 3.050726199312e+01 1.409812536861e-07 -1.769540066739e-09 0.000000000000e+00 
6.000000000000e+00 3.050726402117e+01 1.393625435938e-07 -2.305153339985e-09 0.000000000000e+00 
7.000000000000e+00 3.050807271157e+01 5.516535321463e-10 -2.557853810412e-09 0.000000000000e+00 
8.000000000000e+00 3.051120244506e+01 3.184894729278e-09 -2.532136309302e-09 0.000000000000e+00 
9.000000000000e+00 3.051131576453e+01 1.115873451674e-07 -2.723046301499e-09 0.000000000000e+00 
1.000000000000e+01 3.051131949078e+01 1.148856816989e-07 -3.136084895415e-09 0.000000000000e+00 
1.100000000000e+01 3.051139205946e+01 9.666785489319e-09 -3.345021461117e-09 0.000000000000e+00 
1.200000000000e+01 3.051153226299e+01 3.321341710594e-09 -3.319621410961e-09 0.000000000000e+00 
1.300000000000e+01 3.052942448448e+01 7.882818530738e-08 -3.378588090970e-09 0.000000000000e+00 
1.400000000000e+01 3.052943055657e+01 8.173948549749e-08 -3.540524959279e-09 0.000000000000e+00 
1.500000000000e+01 3.052960087133e+01 4.474245250235e-09 -3.541535818509e-09 0.000000000000e+00 
1.600000000000e+01 3.052991227265e+01 7.793996451017e-09 -3.391186102632e-09 0.000000000000e+00 
1.700000000000e+01 3.052998557464e+01 8.610150824899e-09 -3.245452258849e-09 0.000000000000e+00 
1.800000000000e+01 3.053017187912e+01 2.806239323623e-09 -3.083680707123e-09 0.000000000000e+00 
1.900000000000e+01 3.053108639235e+01 2.001414713774e-09 -2.892005704388e-09 0.000000000000e+00 
2.000000000000e+01 3.053133530140e+01 3.597694673446e-09 -2.682687049712e-09 0.000000000000e+00 
2.100000000000e+01 3.053150907618e+01 1.003639406813e-08 -2.477971906904e-09 0.000000000000e+00 
2.200000000000e+01 3.053155025658e+01 7.529776103326e-08 -2.410613250249e-09 0.000000000000e+00 
2.300000000000e+01 3.053155526953e+01 8.744547354389e-08 -2.495894422614e-09 0.000000000000e+00 
2.400000000000e+01 3.053157277632e+01 2.053980863597e-08 -2.464296388442e-09 0.000000000000e+00 
2.500000000000e+01 3.053238521273e+01 4.479370714833e-08 -2.314900552930e-09 0.000000000000e+00 
2.600000000000e+01 3.053239222363e+01 4.457670447418e-08 -2.164032413791e-09 0.000000000000e+00 
2.700000000000e+01 3.053392225095e+01 9.674176217464e-09 -1.849164402182e-09 0.000000000000e+00 
2.800000000000e+01 3.053394588120e+01 2.180367684687e-08 -1.399662987514e-09 0.000000000000e+00 
2.900000000000e+01 3.053395909316e+01 1.253019244878e-08 -9.111140706107e-10 0.000000000000e+00 
3.000000000000e+01 3.053437727152e+01 4.262449616090e-10 -6.448245586892e-10 0.000000000000e+00 
 ZONE T="TIME=5.184000000000e+05"
0.000000000000e+00 3.050639908401e+01 3.748137510887e-07 -7.315072969325e-10 0.000000000000e+00 
1.000000000000e+00 3.050639962333e+01 1.909938776520e-07 -1.095420389823e-09 0.000000000000e+00 
2.000000000000e+00 3.050645583657e+01 4.136639346198e-09 -1.449514985224e-09 0.000000000000e+00 
3.000000000000e+00 3.050681775587e+01 8.982476670232e-09 -1.439252336651e-09 0.000000000000e+00 
4.000000000000e+00 3.050684133062e+01 1.049086988155e-08 -1.441239928880e-09 0.000000000000e+00 
5.000000000000e+00 3.050693825546e+01 1.409815402989e-07 -1.706886605495e-09 0.000000000000e+00 
6.000000000000e+00 3.050694021490e+01 1.393628268607e-07 -2.229781255726e-09 0.000000000000e+00 
7.000000000000e+00 3.050772319073e+01 5.516546722027e-10 -2.469457778378e-09 0.000000000000e+00 
8.000000000000e+00 3.051073603318e+01 3.184901390557e-09 -2.429912413925e-09 0.000000000000e+00 
9.000000000000e+00 3.051084443205e+01 1.115875783419e-07 -2.606297816387e-09 0.000000000000e+00 
1.000000000000e+01 3.051084800030e+01 1.148859218067e-07 -3.004656895641e-09 0.000000000000e+00 
1.100000000000e+01 3.051091755911e+01 9.666805671590e-09 -3.198927541253e-09 0.000000000000e+00 
1.200000000000e+01 3.051105133081e+01 3.321348626647e-09 -3.161065821991e-09 0.000000000000e+00 
1.300000000000e+01 3.052805467474e+01 7.882827655668e-08 -3.218370419966e-09 0.000000000000e+00 
1.400000000000e+01 3.052806047193e+01 8.173958009614e-08 -3.389546973906e-09 0.000000000000e+00 
1.500000000000e+01 3.052822395243e+01 4.474250385948e-09 -3.402937794547e-09 0.000000000000e+00 
1.600000000000e+01 3.052852348985e+01 7.794005262156e-09 -3.267470926733e-09 0.000000000000e+00 
1.700000000000e+01 3.052859424142e+01 8.610160523191e-09 -3.139462523064e-09 0.000000000000e+00 
1.800000000000e+01 3.052877487765e+01 2.806242455607e-09 -3.000760348776e-09 0.000000000000e+00 
1.900000000000e+01 3.052966822411e+01 2.001416845258e-09 -2.847501447365e-09 0.000000000000e+00 
2.000000000000e+01 3.052991537563e+01 3.597698453868e-09 -2.694694370454e-09 0.000000000000e+00 
2.100000000000e+01 3.053009209897e+01 1.003640451327e-08 -2.557835303758e-09 0.000000000000e+00 
2.200000000000e+01 3.053013528688e+01 7.529783922129e-08 -2.564651456405e-09 0.000000000000e+00 
2.300000000000e+01 3.053014069419e+01 8.744556433624e-08 -2.726493762146e-09 0.000000000000e+00 
2.400000000000e+01 3.053016004841e+01 2.053982995685e-08 -2.780102864665e-09 0.000000000000e+00 
2.500000000000e+01 3.053109631539e+01 4.479375292117e-08 -2.754467922629e-09 0.000000000000e+00 
2.600000000000e+01 3.053110493500e+01 4.457675003132e-08 -2.788188427819e-09 0.000000000000e+00 
2.700000000000e+01 3.053317408892e+01 9.674186125713e-09 -2.779074930638e-09 0.000000000000e+00 
2.800000000000e+01 3.053321415581e+01 2.180369918913e-08 -2.751381311744e-09 0.000000000000e+00 
2.900000000000e+01 3.053324504425e+01 1.253020529357e-08 -2.749389198106e-09 0.000000000000e+00 
3.000000000000e+01 3.053502593649e+01 4.262453964693e-10 -2.746108280410e-09 0.000000000000e+00 
 ZONE T="TIME=6.048000000000e+05"
0.000000000000e+00 3.050601573933e+01 3.748142931245e-07 -7.272938340062e-10 0.000000000000e+00 
1.000000000000e+00 3.050601627554e+01 1.909941538882e-07 -1.086989757858e-09 0.000000000000e+00 
2.000000000000e+00 3.050607200159e+01 4.136645358372e-09 -1.432698011604e-09 0.000000000000e+00 
3.000000000000e+00 3.050642864527e+01 8.982489981620e-09 -1.414200244640e-09 0.000000000000e+00 
4.000000000000e+00 3.050645174293e+01 1.049088543833e-08 -1.408101791218e-09 0.000000000000e+00 
5.000000000000e+00 3.050654617304e+01 1.409817495527e-07 -1.665758072670e-09 0.000000000000e+00 
6.000000000000e+00 3.050654808762e+01 1.393630337311e-07 -2.180807706152e-09 0.000000000000e+00 
7.000000000000e+00 3.050731444182e+01 5.516555075854e-10 -2.413521413907e-09 0.000000000000e+00 
8.000000000000e+00 3.051025468386e+01 3.184906344594e-09 -2.369617074342e-09 0.000000000000e+00 
9.000000000000e+00 3.051036031399e+01 1.115877517985e-07 -2.543971100220e-09 0.000000000000e+00 
1.000000000000e+01 3.051036380191e+01 1.148861003913e-07 -2.940849865218e-09 0.000000000000e+00 
1.100000000000e+01 3.051043196119e+01 9.666820702574e-09 -3.133778408271e-09 0.000000000000e+00 
1.200000000000e+01 3.051056297545e+01 3.321353787637e-09 -3.100503680786e-09 0.000000000000e+00 
1.300000000000e+01 3.052726575275e+01 7.882836870470e-08 -3.190963803450e-09 0.000000000000e+00 
1.400000000000e+01 3.052727155088e+01 8.173967574625e-08 -3.423821989775e-09 0.000000000000e+00 
1.500000000000e+01 3.052743823210e+01 4.474255576591e-09 -3.505297602768e-09 0.000000000000e+00 
1.600000000000e+01 3.052775005871e+01 7.794014134601e-09 -3.439626884059e-09 0.000000000000e+00 
1.700000000000e+01 3.052782539636e+01 8.610170286793e-09 -3.383233969454e-09 0.000000000000e+00 
1.800000000000e+01 3.052802247115e+01 2.806245599969e-09 -3.319045073962e-09 0.000000000000e+00 
1.900000000000e+01 3.052902472431e+01 2.001418941000e-09 -3.248106148189e-09 0.000000000000e+00 
2.000000000000e+01 3.052931154861e+01 3.597702141998e-09 -3.186425274227e-09 0.000000000000e+00 
2.100000000000e+01 3.052952462366e+01 1.003641463327e-08 -3.145643151218e-09 0.000000000000e+00 
2.200000000000e+01 3.052957882930e+01 7.529791477958e-08 -3.250994628539e-09 0.000000000000e+00 
2.300000000000e+01 3.052958574780e+01 8.744565197889e-08 -3.512229537133e-09 0.000000000000e+00 
2.400000000000e+01 3.052961083718e+01 2.053985052600e-08 -3.667459157962e-09 0.000000000000e+00 
2.500000000000e+01 3.053086795744e+01 4.479379522604e-08 -3.753151887785e-09 0.000000000000e+00 
2.600000000000e+01 3.053087987185e+01 4.457679204231e-08 -3.911064500260e-09 0.000000000000e+00 
2.700000000000e+01 3.053382410787e+01 9.674197405799e-09 -4.044355645915e-09 0.000000000000e+00 
2.800000000000e+01 3.053388374108e+01 2.180372466575e-08 -4.175423225969e-09 0.000000000000e+00 
2.900000000000e+01 3.053393151865e+01 1.253022001031e-08 -4.332797752210e-09 0.000000000000e+00 
3.000000000000e+01 3.053679005928e+01 4.262459011658e-10 -4.407825430602e-09 0.000000000000e+00 
 ZONE T="TIME=6.912000000000e+05"
0.000000000000e+00 3.050564333102e+01 3.748142187799e-07 -7.279099638396e-10 0.000000000000e+00 
1.000000000000e+00 3.050564386769e+01 1.909941160551e-07 -1.088209489716e-09 0.000000000000e+00 
2.000000000000e+00 3.050569966398e+01 4.136644638889e-09 -1.435239462319e-09 0.000000000000e+00 
3.000000000000e+00 3.050605712706e+01 8.982489454258e-09 -1.418424127222e-09 0.000000000000e+00 
4.000000000000e+00 3.050608030973e+01 1.049088487390e-08 -1.414362415363e-09 0.000000000000e+00 
5.000000000000e+00 3.050617523217e+01 1.409817431071e-07 -1.674280370787e-09 0.000000000000e+00 
6.000000000000e+00 3.050617715641e+01 1.393630273993e-07 -2.191920583420e-09 0.000000000000e+00 
7.000000000000e+00 3.050694744652e+01 5.516555553423e-10 -2.429176797474e-09 0.000000000000e+00 
8.000000000000e+00 3.050991080844e+01 3.184907629308e-09 -2.395486972074e-09 0.000000000000e+00 
9.000000000000e+00 3.051001792009e+01 1.115877974127e-07 -2.585072891812e-09 0.000000000000e+00 
1.000000000000e+01 3.051002147073e+01 1.148861473816e-07 -2.998333102681e-09 0.000000000000e+00 
1.100000000000e+01 3.051009105512e+01 9.666824717111e-09 -3.207889848772e-09 0.000000000000e+00 
1.200000000000e+01 3.051022552886e+01 3.321355190388e-09 -3.200773596044e-09 0.000000000000e+00 
1.300000000000e+01 3.052756917268e+01 7.882842569378e-08 -3.363122309478e-09 0.000000000000e+00 
1.400000000000e+01 3.052757536771e+01 8.173973473952e-08 -3.713467660450e-09 0.000000000000e+00 
1.500000000000e+01 3.052775866172e+01 4.474258865963e-09 -3.922477340852e-09 0.000000000000e+00 
1.600000000000e+01 3.052811375938e+01 7.794020055119e-09 -3.986582339781e-09 0.000000000000e+00 
1.700000000000e+01 3.052820262863e+01 8.610176863471e-09 -4.062283274178e-09 0.000000000000e+00 
1.800000000000e+01 3.052844348338e+01 2.806247775704e-09 -4.133790165711e-09 0.000000000000e+00 
1.900000000000e+01 3.052971567242e+01 2.001420598565e-09 -4.208227630951e-09 0.000000000000e+00 
2.000000000000e+01 3.053009497276e+01 3.597705170424e-09 -4.302926989638e-09 0.000000000000e+00 
2.100000000000e+01 3.053038877449e+01 1.003642317176e-08 -4.424885211463e-09 0.000000000000e+00 
2.200000000000e+01 3.053046654375e+01 7.529797903515e-08 -4.696243838402e-09 0.000000000000e+00 
2.300000000000e+01 3.053047660125e+01 8.744572669261e-08 -5.124644010795e-09 0.000000000000e+00 
2.400000000000e+01 3.053051333309e+01 2.053986808727e-08 -5.450591765316e-09 0.000000000000e+00 
2.500000000000e+01 3.053240934652e+01 4.479383578917e-08 -5.722680932864e-09 0.000000000000e+00 
2.600000000000e+01 3.053242770280e+01 4.457683249589e-08 -6.090364990633e-09 0.000000000000e+00 
2.700000000000e+01 3.053705913016e+01 9.674204251774e-09 -6.475985077577e-09 0.000000000000e+00 
2.800000000000e+01 3.053715625837e+01 2.180374004522e-08 -6.899594056282e-09 0.000000000000e+00 
2.900000000000e+01 3.053723629458e+01 1.253022877582e-08 -7.368548332072e-09 0.000000000000e+00 
3.000000000000e+01 3.054216795849e+01 4.262462003121e-10 -7.604549452672e-09 0.000000000000e+00 
 ZONE T="TIME=7.776000000000e+05"
0.000000000000e+00 3.050537141949e+01 3.748136072357e-07 -7.337677276026e-10 0.000000000000e+00 
1.000000000000e+00 3.050537196048e+01 1.909938044929e-07 -1.100016330440e-09 0.000000000000e+00 
2.000000000000e+00 3.050542844072e+01 4.136638001823e-09 -1.458907104217e-09 0.000000000000e+00 
3.000000000000e+00 3.050579333964e+01 8.982476267108e-09 -1.454180859376e-09 0.000000000000e+00 
4.000000000000e+00 3.050581720939e+01 1.049086954097e-08 -1.462596125994e-09 0.000000000000e+00 
5.000000000000e+00 3.050591579307e+01 1.409815395575e-07 -1.735251271520e-09 0.000000000000e+00 
6.000000000000e+00 3.050591778436e+01 1.393628262450e-07 -2.266074227328e-09 0.000000000000e+00 
7.000000000000e+00 3.050671351846e+01 5.516548648395e-10 -2.518505828612e-09 0.000000000000e+00 
8.000000000000e+00 3.050979712478e+01 3.184905442158e-09 -2.505669828640e-09 0.000000000000e+00 
9.000000000000e+00 3.050990975028e+01 1.115877224656e-07 -2.721204385599e-09 0.000000000000e+00 
1.000000000000e+01 3.050991349149e+01 1.148860702821e-07 -3.161617530340e-09 0.000000000000e+00 
1.100000000000e+01 3.050998691294e+01 9.666818325468e-09 -3.398532289677e-09 0.000000000000e+00 
1.200000000000e+01 3.051012995492e+01 3.321353042812e-09 -3.425778224887e-09 0.000000000000e+00 
1.300000000000e+01 3.052880740857e+01 7.882848118466e-08 -3.656177408858e-09 0.000000000000e+00 
1.400000000000e+01 3.052881420074e+01 8.173979230979e-08 -4.108104683168e-09 0.000000000000e+00 
1.500000000000e+01 3.052901861626e+01 4.474262046353e-09 -4.425671603578e-09 0.000000000000e+00 
1.600000000000e+01 3.052942383714e+01 7.794025686615e-09 -4.598883307165e-09 0.000000000000e+00 
1.700000000000e+01 3.052952744115e+01 8.610183109891e-09 -4.784141112517e-09 0.000000000000e+00 
1.800000000000e+01 3.052981390515e+01 2.806249830445e-09 -4.965424981447e-09 0.000000000000e+00 
1.900000000000e+01 3.053135683246e+01 2.001422129574e-09 -5.149742720395e-09 0.000000000000e+00 
2.000000000000e+01 3.053182505363e+01 3.597707955005e-09 -5.354148263163e-09 0.000000000000e+00 
2.100000000000e+01 3.053219346222e+01 1.003643100367e-08 -5.585329938265e-09 0.000000000000e+00 
2.200000000000e+01 3.053229225368e+01 7.529803790983e-08 -5.965459891492e-09 0.000000000000e+00 
2.300000000000e+01 3.053230502885e+01 8.744579507886e-08 -6.502426786947e-09 0.000000000000e+00 