VARIABLES = "Time","Value"
ZONE T=obs_01000
0.000000000000e+00 0.000000000000e+00
8.640000000000e+04 5.689792568798e-06
1.728000000000e+05 5.747833709749e-06
2.592000000000e+05 5.704995833779e-06
3.456000000000e+05 5.685448137818e-06
4.320000000000e+05 5.561620417461e-06
5.184000000000e+05 5.544439199194e-06
6.048000000000e+05 5.565119567821e-06
6.912000000000e+05 5.657594714586e-06
7.776000000000e+05 5.760278494985e-06
8.640000000000e+05 5.806789196212e-06
9.504000000000e+05 5.684118748397e-06
1.036800000000e+06 5.569038674144e-06
1.123200000000e+06 5.709025404044e-06
1.209600000000e+06 5.766976201654e-06
1.296000000000e+06 5.648992152994e-06
1.382400000000e+06 5.679155381599e-06
1.468800000000e+06 5.556900052449e-06
1.555200000000e+06 5.578082988443e-06
1.641600000000e+06 5.758530543235e-06
1.728000000000e+06 5.661957965338e-06
1.814400000000e+06 5.759841950572e-06
1.900800000000e+06 5.805449211644e-06
1.987200000000e+06 5.874200628630e-06
2.073600000000e+06 5.708463013660e-06
2.160000000000e+06 5.842533178632e-06
2.246400000000e+06 5.825429999548e-06
2.332800000000e+06 5.907322102849e-06
2.419200000000e+06 5.932755188755e-06
2.505600000000e+06 5.973077930809e-06
2.592000000000e+06 5.975673453328e-06
2.678400000000e+06 6.057175834040e-06
2.764800000000e+06 5.903941876621e-06
2.851200000000e+06 5.925431149169e-06
2.937600000000e+06 5.949586248156e-06
3.024000000000e+06 5.776213262026e-06
3.110400000000e+06 5.744578577370e-06
3.196800000000e+06 5.851936799252e-06
3.283200000000e+06 5.927528077729e-06
3.369600000000e+06 5.837051066106e-06
3.456000000000e+06 5.773659220582e-06
3.542400000000e+06 5.682765459452e-06
3.628800000000e+06 5.704748920075e-06
3.715200000000e+06 5.871043994369e-06
3.801600000000e+06 5.753621599580e-06
3.888000000000e+06 5.621492509692e-06
3.974400000000e+06 5.535446447318e-06
4.060800000000e+06 5.661154209421e-06
4.147200000000e+06 5.731082085698e-06
4.233600000000e+06 5.782672890667e-06
4.320000000000e+06 5.821696934810e-06
4.406400000000e+06 5.834209861504e-06
4.492800000000e+06 5.886520690170e-06
4.579200000000e+06 5.863021466327e-06
4.665600000000e+06 5.910201928942e-06
4.752000000000e+06 5.925537377623e-06
4.838400000000e+06 5.760280655779e-06
4.924800000000e+06 5.857395739503e-06
5.011200000000e+06 5.880098153962e-06
5.097600000000e+06 5.940209190926e-06
5.184000000000e+06 5.959802826503e-06
5.270400000000e+06 5.906884096384e-06
5.356800000000e+06 5.957852479826e-06
5.443200000000e+06 5.858423618398e-06
5.529600000000e+06 5.980488288452e-06
5.616000000000e+06 5.944930416410e-06
5.702400000000e+06 6.003936529585e-06
5.788800000000e+06 5.958451900871e-06
5.875200000000e+06 5.816292219590e-06
5.961600000000e+06 5.706297065641e-06
6.048000000000e+06 5.619365933997e-06
6.134400000000e+06 5.660197898850e-06
6.220800000000e+06 5.801453030286e-06
6.307200000000e+06 5.925137508935e-06
