 TITLE = "Profiles along polylines"
 VARIABLES = "DIST" "HEAD" "VELOCITY_X1" "VELOCITY_Y1" "VELOCITY_Z1" 
 ZONE T="TIME=0.000000000000e+00"
0.000000000000e+00 3.000990086934e+01 0.000000000000e+00 0.000000000000e+00 0.000000000000e+00 
1.000000000000e+00 3.000990090927e+01 0.000000000000e+00 0.000000000000e+00 0.000000000000e+00 
2.000000000000e+00 3.000990512204e+01 0.000000000000e+00 0.000000000000e+00 0.000000000000e+00 
3.000000000000e+00 3.000993291795e+01 0.000000000000e+00 0.000000000000e+00 0.000000000000e+00 
4.000000000000e+00 3.000993477456e+01 0.000000000000e+00 0.000000000000e+00 0.000000000000e+00 
5.000000000000e+00 3.000994259776e+01 0.000000000000e+00 0.000000000000e+00 0.000000000000e+00 
6.000000000000e+00 3.000994275715e+01 0.000000000000e+00 0.000000000000e+00 0.000000000000e+00 
7.000000000000e+00 3.001000676101e+01 0.000000000000e+00 0.000000000000e+00 0.000000000000e+00 
8.000000000000e+00 3.001025730223e+01 0.000000000000e+00 0.000000000000e+00 0.000000000000e+00 
9.000000000000e+00 3.001026653333e+01 0.000000000000e+00 0.000000000000e+00 0.000000000000e+00 
1.000000000000e+01 3.001026686564e+01 0.000000000000e+00 0.000000000000e+00 0.000000000000e+00 
1.100000000000e+01 3.001027377054e+01 0.000000000000e+00 0.000000000000e+00 0.000000000000e+00 
1.200000000000e+01 3.001028732301e+01 0.000000000000e+00 0.000000000000e+00 0.000000000000e+00 
1.300000000000e+01 3.001205202183e+01 0.000000000000e+00 0.000000000000e+00 0.000000000000e+00 
1.400000000000e+01 3.001205292837e+01 0.000000000000e+00 0.000000000000e+00 0.000000000000e+00 
1.500000000000e+01 3.001208663002e+01 0.000000000000e+00 0.000000000000e+00 0.000000000000e+00 
1.600000000000e+01 3.001215204727e+01 0.000000000000e+00 0.000000000000e+00 0.000000000000e+00 
1.700000000000e+01 3.001216862374e+01 0.000000000000e+00 0.000000000000e+00 0.000000000000e+00 
1.800000000000e+01 3.001221419901e+01 0.000000000000e+00 0.000000000000e+00 0.000000000000e+00 
1.900000000000e+01 3.001245397343e+01 0.000000000000e+00 0.000000000000e+00 0.000000000000e+00 
2.000000000000e+01 3.001252484042e+01 0.000000000000e+00 0.000000000000e+00 0.000000000000e+00 
2.100000000000e+01 3.001257959285e+01 0.000000000000e+00 0.000000000000e+00 0.000000000000e+00 
2.200000000000e+01 3.001259453648e+01 0.000000000000e+00 0.000000000000e+00 0.000000000000e+00 
2.300000000000e+01 3.001259712532e+01 0.000000000000e+00 0.000000000000e+00 0.000000000000e+00 
2.400000000000e+01 3.001260896210e+01 0.000000000000e+00 0.000000000000e+00 0.000000000000e+00 
2.500000000000e+01 3.001323636188e+01 0.000000000000e+00 0.000000000000e+00 0.000000000000e+00 
2.600000000000e+01 3.001324402422e+01 0.000000000000e+00 0.000000000000e+00 0.000000000000e+00 
2.700000000000e+01 3.001551966766e+01 0.000000000000e+00 0.000000000000e+00 0.000000000000e+00 
2.800000000000e+01 3.001557312104e+01 0.000000000000e+00 0.000000000000e+00 0.000000000000e+00 
2.900000000000e+01 3.001562914954e+01 0.000000000000e+00 0.000000000000e+00 0.000000000000e+00 
3.000000000000e+01 3.001936237878e+01 0.000000000000e+00 0.000000000000e+00 0.000000000000e+00 
 TITLE = "Profiles along polylines"
 VARIABLES = "DIST" "HEAD" "VELOCITY_X1" "VELOCITY_Y1" "VELOCITY_Z1" 
 ZONE T="TIME=8.640000000000e+04"
0.000000000000e+00 3.000989723899e+01 1.342046185704e-06 -5.351385753298e-11 0.000000000000e+00 
1.000000000000e+00 3.000989727844e+01 6.838693083353e-07 -8.069007586159e-11 0.000000000000e+00 
2.000000000000e+00 3.000990143343e+01 1.481775869555e-08 -1.082459278279e-10 0.000000000000e+00 
3.000000000000e+00 3.000992874036e+01 3.226412265956e-08 -1.097443332737e-10 0.000000000000e+00 
4.000000000000e+00 3.000993055684e+01 3.768896670330e-08 -1.122064581773e-10 0.000000000000e+00 
5.000000000000e+00 3.000993818032e+01 5.068695792345e-07 -1.349073098001e-10 0.000000000000e+00 
6.000000000000e+00 3.000993833574e+01 5.010576200689e-07 -1.773682797506e-10 0.000000000000e+00 
7.000000000000e+00 3.001000075832e+01 1.995765471714e-09 -1.981644937321e-10 0.000000000000e+00 
8.000000000000e+00 3.001024412379e+01 1.180082227799e-08 -1.979167279357e-10 0.000000000000e+00 
9.000000000000e+00 3.001025302716e+01 4.138157062433e-07 -2.239641472822e-10 0.000000000000e+00 
1.000000000000e+01 3.001025334544e+01 4.260605238731e-07 -2.767419500568e-10 0.000000000000e+00 
1.100000000000e+01 3.001025992876e+01 3.587265059152e-08 -3.050777075460e-10 0.000000000000e+00 
1.200000000000e+01 3.001027278384e+01 1.234051580139e-08 -3.055417579074e-10 0.000000000000e+00 
1.300000000000e+01 3.001192600439e+01 3.395459948630e-07 -3.801235364547e-10 0.000000000000e+00 
1.400000000000e+01 3.001192680378e+01 3.521091284374e-07 -5.334399784717e-10 0.000000000000e+00 
1.500000000000e+01 3.001195556310e+01 1.931843346926e-08 -6.083547305289e-10 0.000000000000e+00 
1.600000000000e+01 3.001201000376e+01 3.379948213254e-08 -6.068693629724e-10 0.000000000000e+00 
1.700000000000e+01 3.001202343756e+01 3.737891563626e-08 -6.102813255580e-10 0.000000000000e+00 
1.800000000000e+01 3.001205940112e+01 1.221752192264e-08 -6.067153917586e-10 0.000000000000e+00 
1.900000000000e+01 3.001224293026e+01 8.840459745280e-09 -5.925866048854e-10 0.000000000000e+00 
2.000000000000e+01 3.001229506072e+01 1.595610049889e-08 -5.775389350077e-10 0.000000000000e+00 
2.100000000000e+01 3.001233357197e+01 4.464525553369e-08 -5.761966400803e-10 0.000000000000e+00 
2.200000000000e+01 3.001234363393e+01 3.352078102990e-07 -7.149145600800e-10 0.000000000000e+00 
2.300000000000e+01 3.001234537586e+01 3.893357961403e-07 -1.006209191033e-09 0.000000000000e+00 
2.400000000000e+01 3.001235336639e+01 9.150130682177e-08 -1.188740704778e-09 0.000000000000e+00 
2.500000000000e+01 3.001276789376e+01 2.053124746833e-07 -1.391187345878e-09 0.000000000000e+00 
2.600000000000e+01 3.001277277904e+01 2.043757854459e-07 -1.736973925307e-09 0.000000000000e+00 
2.700000000000e+01 3.001417647890e+01 4.758106450843e-08 -2.006761426675e-09 0.000000000000e+00 
2.800000000000e+01 3.001420719906e+01 1.073490407445e-07 -2.420077295430e-09 0.000000000000e+00 
2.900000000000e+01 3.001423785105e+01 6.171276149028e-08 -2.859275816439e-09 0.000000000000e+00 
3.000000000000e+01 3.001617493468e+01 2.104848509719e-09 -2.986952997017e-09 0.000000000000e+00 
 ZONE T="TIME=1.728000000000e+05"
0.000000000000e+00 3.000989272608e+01 1.341436083550e-06 -5.316256098073e-11 0.000000000000e+00 
1.000000000000e+00 3.000989276528e+01 6.835584007347e-07 -8.013244791459e-11 0.000000000000e+00 
2.000000000000e+00 3.000989689084e+01 1.481098107185e-08 -1.074315239341e-10 0.000000000000e+00 
3.000000000000e+00 3.000992398036e+01 3.224870095870e-08 -1.088357964196e-10 0.000000000000e+00 
4.000000000000e+00 3.000992578124e+01 3.767089613320e-08 -1.112139715175e-10 0.000000000000e+00 
5.000000000000e+00 3.000993333538e+01 5.066231979341e-07 -1.337295462819e-10 0.000000000000e+00 
6.000000000000e+00 3.000993348948e+01 5.008140011174e-07 -1.759118332759e-10 0.000000000000e+00 
7.000000000000e+00 3.000999541194e+01 1.994700836579e-09 -1.966537711103e-10 0.000000000000e+00 
8.000000000000e+00 3.001023701688e+01 1.179262570201e-08 -1.967881148937e-10 0.000000000000e+00 
9.000000000000e+00 3.001024588310e+01 4.135269636259e-07 -2.235387712599e-10 0.000000000000e+00 
1.000000000000e+01 3.001024620135e+01 4.257632387288e-07 -2.771245001379e-10 0.000000000000e+00 
1.100000000000e+01 3.001025280181e+01 3.584768005910e-08 -3.062657484950e-10 0.000000000000e+00 
1.200000000000e+01 3.001026572338e+01 1.233200402098e-08 -3.089012528280e-10 0.000000000000e+00 
1.300000000000e+01 3.001194681543e+01 3.400809388348e-07 -4.008004480731e-10 0.000000000000e+00 
1.400000000000e+01 3.001194767834e+01 3.526654740617e-07 -5.869879221308e-10 0.000000000000e+00 
1.500000000000e+01 3.001197977318e+01 1.935360683917e-08 -6.888918969917e-10 0.000000000000e+00 
1.600000000000e+01 3.001204232213e+01 3.388109173830e-08 -7.083680114804e-10 0.000000000000e+00 
1.700000000000e+01 3.001205824772e+01 3.747602740724e-08 -7.352001903166e-10 0.000000000000e+00 
1.800000000000e+01 3.001210225849e+01 1.225652310439e-08 -7.566761717411e-10 0.000000000000e+00 
1.900000000000e+01 3.001233552811e+01 8.900858471463e-09 -7.732849894775e-10 0.000000000000e+00 
2.000000000000e+01 3.001240537336e+01 1.608558891527e-08 -7.976278624133e-10 0.000000000000e+00 
2.100000000000e+01 3.001246018662e+01 4.506012085812e-08 -8.453198381443e-10 0.000000000000e+00 
2.200000000000e+01 3.001247538052e+01 3.384455165992e-07 -1.081264373231e-09 0.000000000000e+00 
2.300000000000e+01 3.001247801795e+01 3.931191705270e-07 -1.520609031764e-09 0.000000000000e+00 
2.400000000000e+01 3.001249007678e+01 9.241351856421e-08 -1.822232484761e-09 0.000000000000e+00 
2.500000000000e+01 3.001313496282e+01 2.102054946662e-07 -2.232138666043e-09 0.000000000000e+00 
2.600000000000e+01 3.001314298543e+01 2.092753119390e-07 -2.934973846641e-09 0.000000000000e+00 
2.700000000000e+01 3.001556974393e+01 5.045479709224e-08 -3.679610909560e-09 0.000000000000e+00 
2.800000000000e+01 3.001562898059e+01 1.138929799025e-07 -4.867144274975e-09 0.000000000000e+00 
2.900000000000e+01 3.001569258756e+01 6.547871321486e-08 -6.190082063583e-09 0.000000000000e+00 
3.000000000000e+01 3.002004524691e+01 2.223929022821e-09 -6.711733382963e-09 0.000000000000e+00 
 ZONE T="TIME=2.592000000000e+05"
0.000000000000e+00 3.000988709255e+01 1.340674185764e-06 -5.277613179932e-11 0.000000000000e+00 
1.000000000000e+00 3.000988713146e+01 6.831701408600e-07 -7.952743114676e-11 0.000000000000e+00 
2.000000000000e+00 3.000989122530e+01 1.480252489294e-08 -1.065392372987e-10 0.000000000000e+00 
3.000000000000e+00 3.000991807324e+01 3.222956010463e-08 -1.077998493633e-10 0.000000000000e+00 
4.000000000000e+00 3.000991985592e+01 3.764847245355e-08 -1.100264375059e-10 0.000000000000e+00 
5.000000000000e+00 3.000992732519e+01 5.063175588406e-07 -1.322542061061e-10 0.000000000000e+00 
6.000000000000e+00 3.000992747761e+01 5.005117873786e-07 -1.740200781461e-10 0.000000000000e+00 
7.000000000000e+00 3.000998874055e+01 1.993374096333e-09 -1.944709963809e-10 0.000000000000e+00 
8.000000000000e+00 3.001022755511e+01 1.178178040618e-08 -1.943837246279e-10 0.000000000000e+00 
9.000000000000e+00 3.001023630709e+01 4.131424214289e-07 -2.205460519523e-10 0.000000000000e+00 
1.000000000000e+01 3.001023662096e+01 4.253671512777e-07 -2.732159132096e-10 0.000000000000e+00 
1.100000000000e+01 3.001024312659e+01 3.581402870489e-08 -3.017166034252e-10 0.000000000000e+00 
1.200000000000e+01 3.001025585002e+01 1.232020984575e-08 -3.034071639536e-10 0.000000000000e+00 
1.300000000000e+01 3.001190294029e+01 3.388605731448e-07 -3.869559296310e-10 0.000000000000e+00 
1.400000000000e+01 3.001190376563e+01 3.513990431624e-07 -5.571385896377e-10 0.000000000000e+00 
1.500000000000e+01 3.001193405933e+01 1.928171015099e-08 -6.462047063169e-10 0.000000000000e+00 
1.600000000000e+01 3.001199237406e+01 3.374519555744e-08 -6.558922892155e-10 0.000000000000e+00 
1.700000000000e+01 3.001200702173e+01 3.732233801944e-08 -6.714677278690e-10 0.000000000000e+00 
1.800000000000e+01 3.001204694451e+01 1.220271483765e-08 -6.804437012139e-10 0.000000000000e+00 
1.900000000000e+01 3.001225491402e+01 8.846019395702e-09 -6.803926515309e-10 0.000000000000e+00 
2.000000000000e+01 3.001231557361e+01 1.597625899279e-08 -6.821009815450e-10 0.000000000000e+00 
2.100000000000e+01 3.001236174435e+01 4.472698413961e-08 -7.010527077292e-10 0.000000000000e+00 
2.200000000000e+01 3.001237416248e+01 3.358792747491e-07 -8.816674814719e-10 0.000000000000e+00 
2.300000000000e+01 3.001237630962e+01 3.901263698075e-07 -1.237958213390e-09 0.000000000000e+00 
2.400000000000e+01 3.001238612711e+01 9.169784429626e-08 -1.470829338562e-09 0.000000000000e+00 
2.500000000000e+01 3.001290246535e+01 2.070570620369e-07 -1.753913805976e-09 0.000000000000e+00 
2.600000000000e+01 3.001290868152e+01 2.061255287408e-07 -2.232895369317e-09 0.000000000000e+00 
2.700000000000e+01 3.001472827288e+01 4.875578213977e-08 -2.655199263567e-09 0.000000000000e+00 
2.800000000000e+01 3.001476966458e+01 1.100253545893e-07 -3.313077312296e-09 0.000000000000e+00 
2.900000000000e+01 3.001481213854e+01 6.325408310379e-08 -4.019939689993e-09 0.000000000000e+00 
3.000000000000e+01 3.001757140636e+01 2.155088775964e-09 -4.254748296038e-09 0.000000000000e+00 
 ZONE T="TIME=3.456000000000e+05"
0.000000000000e+00 3.000987961900e+01 1.339663482176e-06 -5.222604820628e-11 0.000000000000e+00 
1.000000000000e+00 3.000987965751e+01 6.826550888597e-07 -7.864138181172e-11 0.000000000000e+00 
2.000000000000e+00 3.000988370427e+01 1.479129998425e-08 -1.052037598291e-10 0.000000000000e+00 
3.000000000000e+00 3.000991018797e+01 3.220401395460e-08 -1.062248763595e-10 0.000000000000e+00 
4.000000000000e+00 3.000991194278e+01 3.761853163062e-08 -1.081950636370e-10 0.000000000000e+00 
5.000000000000e+00 3.000991928034e+01 5.059085400818e-07 -1.299661159803e-10 0.000000000000e+00 
6.000000000000e+00 3.000991943017e+01 5.001073350968e-07 -1.710765613655e-10 0.000000000000e+00 
7.000000000000e+00 3.000997966381e+01 1.991569927835e-09 -1.910460782832e-10 0.000000000000e+00 
8.000000000000e+00 3.001021407836e+01 1.176634796326e-08 -1.905744127964e-10 0.000000000000e+00 
9.000000000000e+00 3.001022264860e+01 4.125944641045e-07 -2.157463351485e-10 0.000000000000e+00 
1.000000000000e+01 3.001022295538e+01 4.248027080333e-07 -2.668866790343e-10 0.000000000000e+00 
1.100000000000e+01 3.001022930702e+01 3.576600751871e-08 -2.943289124360e-10 0.000000000000e+00 
1.200000000000e+01 3.001024170867e+01 1.230333179640e-08 -2.953556998636e-10 0.000000000000e+00 
1.300000000000e+01 3.001184303498e+01 3.371797453651e-07 -3.736810754040e-10 0.000000000000e+00 
1.400000000000e+01 3.001184382853e+01 3.496552491216e-07 -5.338988656466e-10 0.000000000000e+00 
1.500000000000e+01 3.001187278766e+01 1.918423588851e-08 -6.167076155978e-10 0.000000000000e+00 
1.600000000000e+01 3.001192834838e+01 3.356809722738e-08 -6.239332583490e-10 0.000000000000e+00 
1.700000000000e+01 3.001194226085e+01 3.712453589908e-08 -6.368466422803e-10 0.000000000000e+00 
1.800000000000e+01 3.001198007196e+01 1.213622162466e-08 -6.437265067568e-10 0.000000000000e+00 
1.900000000000e+01 3.001217659779e+01 8.790733083870e-09 -6.427705030251e-10 0.000000000000e+00 
2.000000000000e+01 3.001223388687e+01 1.587268476363e-08 -6.444082289605e-10 0.000000000000e+00 
2.100000000000e+01 3.001227752019e+01 4.442917183651e-08 -6.630702626779e-10 0.000000000000e+00 
2.200000000000e+01 3.001228927473e+01 3.336274745341e-07 -8.355083246330e-10 0.000000000000e+00 
2.300000000000e+01 3.001229131106e+01 3.875080308960e-07 -1.174782069535e-09 0.000000000000e+00 
2.400000000000e+01 3.001230063169e+01 9.107948747564e-08 -1.398056096114e-09 0.000000000000e+00 
2.500000000000e+01 3.001279197564e+01 2.053398596460e-07 -1.676330194944e-09 0.000000000000e+00 
2.600000000000e+01 3.001279793647e+01 2.044129662541e-07 -2.152811484905e-09 0.000000000000e+00 
2.700000000000e+01 3.001455993227e+01 4.819349680418e-08 -2.604712184746e-09 0.000000000000e+00 
2.800000000000e+01 3.001460099162e+01 1.087521081442e-07 -3.316284024680e-09 0.000000000000e+00 
2.900000000000e+01 3.001464379352e+01 6.252037250353e-08 -4.098221835679e-09 0.000000000000e+00 
3.000000000000e+01 3.001748564317e+01 2.128453649539e-09 -4.382088191070e-09 0.000000000000e+00 
 ZONE T="TIME=4.320000000000e+05"
0.000000000000e+00 3.000986515651e+01 1.337709476034e-06 -5.069171470379e-11 0.000000000000e+00 
1.000000000000e+00 3.000986519388e+01 6.816593089026e-07 -7.612848999014e-11 0.000000000000e+00 
2.000000000000e+00 3.000986910615e+01 1.476953458504e-08 -1.012836808420e-10 0.000000000000e+00 
3.000000000000e+00 3.000989449665e+01 3.215324497013e-08 -1.013959404384e-10 0.000000000000e+00 
4.000000000000e+00 3.000989616447e+01 3.755891096781e-08 -1.023871417696e-10 0.000000000000e+00 
5.000000000000e+00 3.000990307861e+01 5.050859739018e-07 -1.225973324485e-10 0.000000000000e+00 
6.000000000000e+00 3.000990322005e+01 4.992937961922e-07 -1.615652833012e-10 0.000000000000e+00 
7.000000000000e+00 3.000996012245e+01 1.987694232290e-09 -1.797677530360e-10 0.000000000000e+00 
8.000000000000e+00 3.001017982000e+01 1.172724697881e-08 -1.774456213463e-10 0.000000000000e+00 
9.000000000000e+00 3.001018774747e+01 4.111989121809e-07 -1.982079255306e-10 0.000000000000e+00 
1.000000000000e+01 3.001018802779e+01 4.233648302307e-07 -2.427816040988e-10 0.000000000000e+00 
1.100000000000e+01 3.001019378458e+01 3.564299580459e-08 -2.654585194234e-10 0.000000000000e+00 
1.200000000000e+01 3.001020491530e+01 1.225957942848e-08 -2.622292496474e-10 0.000000000000e+00 
1.300000000000e+01 3.001161109767e+01 3.307173632526e-07 -3.071321018932e-10 0.000000000000e+00 
1.400000000000e+01 3.001161172082e+01 3.429495364513e-07 -4.037624750163e-10 0.000000000000e+00 
1.500000000000e+01 3.001163300351e+01 1.880582317225e-08 -4.417844329238e-10 0.000000000000e+00 
1.600000000000e+01 3.001167177821e+01 3.286540494068e-08 -4.231783388235e-10 0.000000000000e+00 
1.700000000000e+01 3.001168094613e+01 3.633464985359e-08 -4.071692769246e-10 0.000000000000e+00 
1.800000000000e+01 3.001170439518e+01 1.186534399764e-08 -3.852089432987e-10 0.000000000000e+00 
1.900000000000e+01 3.001181771874e+01 8.541891089911e-09 -3.529950023142e-10 0.000000000000e+00 
2.000000000000e+01 3.001184760380e+01 1.539239935156e-08 -3.165794839714e-10 0.000000000000e+00 
2.100000000000e+01 3.001186772385e+01 4.301057779476e-08 -2.861744919054e-10 0.000000000000e+00 
2.200000000000e+01 3.001187246652e+01 3.228102895756e-07 -3.366988046476e-10 0.000000000000e+00 
2.300000000000e+01 3.001187328645e+01 3.749130917861e-07 -4.759694674701e-10 0.000000000000e+00 
2.400000000000e+01 3.001187707980e+01 8.808790311727e-08 -5.492387609646e-10 0.000000000000e+00 
2.500000000000e+01 3.001206355625e+01 1.948397196033e-07 -5.948714076009e-10 0.000000000000e+00 
2.600000000000e+01 3.001206556112e+01 1.939227530763e-07 -6.779806235540e-10 0.000000000000e+00 
2.700000000000e+01 3.001259025737e+01 4.352929926278e-08 -6.645635136478e-10 0.000000000000e+00 
2.800000000000e+01 3.001259924749e+01 9.815376760444e-08 -6.260724758347e-10 0.000000000000e+00 
2.900000000000e+01 3.001260637395e+01 5.641951797103e-08 -5.652987120627e-10 0.000000000000e+00 
3.000000000000e+01 3.001292772091e+01 1.926918069963e-09 -4.955120431871e-10 0.000000000000e+00 
 ZONE T="TIME=5.184000000000e+05"
0.000000000000e+00 3.000984390534e+01 1.334836695738e-06 -4.886629195588e-11 0.000000000000e+00 
1.000000000000e+00 3.000984394137e+01 6.801953340930e-07 -7.317552235592e-11 0.000000000000e+00 
2.000000000000e+00 3.000984769646e+01 1.473759451563e-08 -9.679157355728e-11 0.000000000000e+00 
3.000000000000e+00 3.000987185423e+01 3.207992201267e-08 -9.605015752741e-11 0.000000000000e+00 
4.000000000000e+00 3.000987342722e+01 3.747291837490e-08 -9.614778318283e-11 0.000000000000e+00 
5.000000000000e+00 3.000987989215e+01 5.039076341882e-07 -1.148235843415e-10 0.000000000000e+00 
6.000000000000e+00 3.000988002479e+01 4.981285457459e-07 -1.516290863553e-10 0.000000000000e+00 
7.000000000000e+00 3.000993346255e+01 1.982396886195e-09 -1.683391338955e-10 0.000000000000e+00 
8.000000000000e+00 3.001013859501e+01 1.168003001259e-08 -1.651567034469e-10 0.000000000000e+00 
9.000000000000e+00 3.001014594970e+01 4.095216573433e-07 -1.835203989359e-10 0.000000000000e+00 
1.000000000000e+01 3.001014620883e+01 4.216371272810e-07 -2.241476128782e-10 0.000000000000e+00 
1.100000000000e+01 3.001015151820e+01 3.549607694877e-08 -2.443036547625e-10 0.000000000000e+00 
1.200000000000e+01 3.001016173997e+01 1.220802118284e-08 -2.409118095807e-10 0.000000000000e+00 
1.300000000000e+01 3.001145413954e+01 3.262750732639e-07 -2.846398760921e-10 0.000000000000e+00 
1.400000000000e+01 3.001145472054e+01 3.383418993871e-07 -3.788638557642e-10 0.000000000000e+00 
1.500000000000e+01 3.001147479058e+01 1.855151631988e-08 -4.205515222731e-10 0.000000000000e+00 
1.600000000000e+01 3.001151206420e+01 3.241757604186e-08 -4.115849713786e-10 0.000000000000e+00 
1.700000000000e+01 3.001152108879e+01 3.583925043666e-08 -4.062405571505e-10 0.000000000000e+00 
1.800000000000e+01 3.001154480976e+01 1.170389307102e-08 -3.971791993909e-10 0.000000000000e+00 
1.900000000000e+01 3.001166403011e+01 8.429756156068e-09 -3.837182238412e-10 0.000000000000e+00 
2.000000000000e+01 3.001169767529e+01 1.519481675975e-08 -3.726580681449e-10 0.000000000000e+00 
2.100000000000e+01 3.001172251877e+01 4.247391168561e-08 -3.724689728308e-10 0.000000000000e+00 
2.200000000000e+01 3.001172903623e+01 3.188249625666e-07 -4.645375014199e-10 0.000000000000e+00 
2.300000000000e+01 3.001173017055e+01 3.702923266194e-07 -6.563692564314e-10 0.000000000000e+00 
2.400000000000e+01 3.001173538953e+01 8.700991616591e-08 -7.799668552657e-10 0.000000000000e+00 
2.500000000000e+01 3.001200855901e+01 1.934844303570e-07 -9.343718434281e-10 0.000000000000e+00 
2.600000000000e+01 3.001201188792e+01 1.925846998624e-07 -1.209930521598e-09 0.000000000000e+00 
2.700000000000e+01 3.001300719250e+01 4.392648389198e-08 -1.495923925778e-09 0.000000000000e+00 
2.800000000000e+01 3.001303110239e+01 9.907616608018e-08 -1.952230442808e-09 0.000000000000e+00 
2.900000000000e+01 3.001305649998e+01 5.694924540010e-08 -2.467746246369e-09 0.000000000000e+00 
3.000000000000e+01 3.001478942755e+01 1.937197732891e-09 -2.672147495430e-09 0.000000000000e+00 
 ZONE T="TIME=6.048000000000e+05"
0.000000000000e+00 3.000982040458e+01 1.331656663755e-06 -4.761514777867e-11 0.000000000000e+00 
1.000000000000e+00 3.000982043968e+01 6.785748215622e-07 -7.121435033648e-11 0.000000000000e+00 
2.000000000000e+00 3.000982409188e+01 1.470234340318e-08 -9.398498113794e-11 0.000000000000e+00 
3.000000000000e+00 3.000984751009e+01 3.200098153365e-08 -9.297690482267e-11 0.000000000000e+00 
4.000000000000e+00 3.000984903056e+01 3.738052293622e-08 -9.281519655044e-11 0.000000000000e+00 
5.000000000000e+00 3.000985526316e+01 5.026541448142e-07 -1.108270251235e-10 0.000000000000e+00 
6.000000000000e+00 3.000985539128e+01 4.968892215523e-07 -1.465784352066e-10 0.000000000000e+00 
7.000000000000e+00 3.000990707756e+01 1.977141689938e-09 -1.628440732564e-10 0.000000000000e+00 
8.000000000000e+00 3.001010554181e+01 1.164199600363e-08 -1.601267691746e-10 0.000000000000e+00 
9.000000000000e+00 3.001011268789e+01 4.081806055107e-07 -1.790667227084e-10 0.000000000000e+00 
1.000000000000e+01 3.001011294159e+01 4.202562035739e-07 -2.200584114827e-10 0.000000000000e+00 
1.100000000000e+01 3.001011816615e+01 3.537956863726e-08 -2.408899156022e-10 0.000000000000e+00 
1.200000000000e+01 3.001012826560e+01 1.216783085353e-08 -2.396608031567e-10 0.000000000000e+00 
1.300000000000e+01 3.001142292316e+01 3.253323596136e-07 -2.987574831293e-10 0.000000000000e+00 
1.400000000000e+01 3.001142355295e+01 3.373656229064e-07 -4.218489011486e-10 0.000000000000e+00 
1.500000000000e+01 3.001144635968e+01 1.850196273211e-08 -4.867588375352e-10 0.000000000000e+00 
1.600000000000e+01 3.001149030910e+01 3.234811166317e-08 -4.949256243057e-10 0.000000000000e+00 
1.700000000000e+01 3.001150137525e+01 3.576826492955e-08 -5.081619804758e-10 0.000000000000e+00 
1.800000000000e+01 3.001153163931e+01 1.168680248435e-08 -5.178672904256e-10 0.000000000000e+00 
1.900000000000e+01 3.001169054375e+01 8.443901176418e-09 -5.245687123074e-10 0.000000000000e+00 
2.000000000000e+01 3.001173773060e+01 1.523647464429e-08 -5.368303334410e-10 0.000000000000e+00 
2.100000000000e+01 3.001177448671e+01 4.263000265575e-08 -5.649272138589e-10 0.000000000000e+00 
2.200000000000e+01 3.001178460888e+01 3.200857889945e-07 -7.192566502571e-10 0.000000000000e+00 
2.300000000000e+01 3.001178636150e+01 3.717731796756e-07 -1.009903649050e-09 0.000000000000e+00 
2.400000000000e+01 3.001179436702e+01 8.737449702866e-08 -1.208228247738e-09 0.000000000000e+00 
2.500000000000e+01 3.001222146316e+01 1.962933592582e-07 -1.476922400864e-09 0.000000000000e+00 
2.600000000000e+01 3.001222676778e+01 1.954007734316e-07 -1.938948164859e-09 0.000000000000e+00 
2.700000000000e+01 3.001382888227e+01 4.573786225574e-08 -2.424283565751e-09 0.000000000000e+00 
2.800000000000e+01 3.001386784537e+01 1.032015908568e-07 -3.197649915174e-09 0.000000000000e+00 
2.900000000000e+01 3.001390959935e+01 5.932563744684e-08 -4.054692846022e-09 0.000000000000e+00 
3.000000000000e+01 3.001675555318e+01 2.015848383750e-09 -4.388416770793e-09 0.000000000000e+00 
 ZONE T="TIME=6.912000000000e+05"
0.000000000000e+00 3.000980202016e+01 1.329164207234e-06 -4.774249645980e-11 0.000000000000e+00 
1.000000000000e+00 3.000980205536e+01 6.773047458685e-07 -7.155139008652e-11 0.000000000000e+00 
2.000000000000e+00 3.000980572862e+01 1.467486481152e-08 -9.484226071232e-11 0.000000000000e+00 
3.000000000000e+00 3.000982944039e+01 3.194223136118e-08 -9.450075443697e-11 0.000000000000e+00 
4.000000000000e+00 3.000983099167e+01 3.731202070924e-08 -9.506901094497e-11 0.000000000000e+00 
5.000000000000e+00 3.000983740069e+01 5.017423647857e-07 -1.139131921357e-10 0.000000000000e+00 
6.000000000000e+00 3.000983753234e+01 4.959880831415e-07 -1.506157254952e-10 0.000000000000e+00 
7.000000000000e+00 3.000989064337e+01 1.973850411948e-09 -1.680551007424e-10 0.000000000000e+00 
8.000000000000e+00 3.001009635488e+01 1.163112898808e-08 -1.673126146570e-10 0.000000000000e+00 
9.000000000000e+00 3.001010388231e+01 4.078149149206e-07 -1.904471430424e-10 0.000000000000e+00 
1.000000000000e+01 3.001010415419e+01 4.198804345998e-07 -2.373024912756e-10 0.000000000000e+00 
1.100000000000e+01 3.001010981703e+01 3.534942524024e-08 -2.626875060696e-10 0.000000000000e+00 
1.200000000000e+01 3.001012089701e+01 1.215861081347e-08 -2.661285529099e-10 0.000000000000e+00 
1.300000000000e+01 3.001157599659e+01 3.295435635360e-07 -3.598544683805e-10 0.000000000000e+00 
1.400000000000e+01 3.001157678887e+01 3.417367769517e-07 -5.485063118827e-10 0.000000000000e+00 
1.500000000000e+01 3.001160715698e+01 1.875238839114e-08 -6.598534048429e-10 0.000000000000e+00 
1.600000000000e+01 3.001166778343e+01 3.282753808058e-08 -6.949193832509e-10 0.000000000000e+00 
1.700000000000e+01 3.001168358728e+01 3.631149454772e-08 -7.378529133222e-10 0.000000000000e+00 
1.800000000000e+01 3.001172823319e+01 1.187733159660e-08 -7.765584603719e-10 0.000000000000e+00 
1.900000000000e+01 3.001197034302e+01 8.635593666082e-09 -8.129365141436e-10 0.000000000000e+00 
2.000000000000e+01 3.001204468175e+01 1.561385287122e-08 -8.596190072474e-10 0.000000000000e+00 
2.100000000000e+01 3.001210446176e+01 4.376026832731e-08 -9.317103925428e-10 0.000000000000e+00 
2.200000000000e+01 3.001212137136e+01 3.287352955156e-07 -1.200721623498e-09 0.000000000000e+00 
2.300000000000e+01 3.001212429578e+01 3.818498390477e-07 -1.682268797095e-09 0.000000000000e+00 
2.400000000000e+01 3.001213761458e+01 8.977365997355e-08 -2.020920193341e-09 0.000000000000e+00 
2.500000000000e+01 3.001285554615e+01 2.053636858288e-07 -2.497147196840e-09 0.000000000000e+00 
2.600000000000e+01 3.001286455330e+01 2.044665601102e-07 -3.304383088489e-09 0.000000000000e+00 
2.700000000000e+01 3.001560272370e+01 4.997851665566e-08 -4.168158421321e-09 0.000000000000e+00 
2.800000000000e+01 3.001567003869e+01 1.128403360933e-07 -5.546323589742e-09 0.000000000000e+00 
2.900000000000e+01 3.001574266623e+01 6.487578161320e-08 -7.072348309373e-09 0.000000000000e+00 
3.000000000000e+01 3.002071832178e+01 2.201188199519e-09 -7.672383888850e-09 0.000000000000e+00 
 ZONE T="TIME=7.776000000000e+05"
0.000000000000e+00 3.000979485708e+01 1.328186162183e-06 -4.934586187715e-11 0.000000000000e+00 
1.000000000000e+00 3.000979489346e+01 6.768064432632e-07 -7.427990972331e-11 0.000000000000e+00 
2.000000000000e+00 3.000979871517e+01 1.466429012863e-08 -9.937235610479e-11 0.000000000000e+00 
3.000000000000e+00 3.000982373579e+01 3.192345464093e-08 -1.004483081158e-10 0.000000000000e+00 
4.000000000000e+00 3.000982539666e+01 3.729050105306e-08 -1.025211619625e-10 0.000000000000e+00 
5.000000000000e+00 3.000983235726e+01 5.014809508245e-07 -1.234735762837e-10 0.000000000000e+00 
6.000000000000e+00 3.000983249976e+01 4.957302094992e-07 -1.628825872384e-10 0.000000000000e+00 
7.000000000000e+00 3.000988989723e+01 1.973671459425e-09 -1.826839953801e-10 0.000000000000e+00 
8.000000000000e+00 3.001011483264e+01 1.165191879221e-08 -1.845061845401e-10 0.000000000000e+00 
9.000000000000e+00 3.001012320365e+01 4.085768985744e-07 -2.135087447138e-10 0.000000000000e+00 
1.000000000000e+01 3.001012351038e+01 4.206663587979e-07 -2.690536814191e-10 0.000000000000e+00 
1.100000000000e+01 3.001012995699e+01 3.541822681775e-08 -3.007191506896e-10 0.000000000000e+00 
1.200000000000e+01 3.001014271087e+01 1.218421260221e-08 -3.086418749947e-10 0.000000000000e+00 
1.300000000000e+01 3.001184270691e+01 3.369778333769e-07 -4.358234471324e-10 0.000000000000e+00 
1.400000000000e+01 3.001184368657e+01 3.494508152303e-07 -6.880147848831e-10 0.000000000000e+00 
1.500000000000e+01 3.001188215781e+01 1.918682589310e-08 -8.401971698022e-10 0.000000000000e+00 
1.600000000000e+01 3.001195972979e+01 3.362889095656e-08 -8.932092113783e-10 0.000000000000e+00 
1.700000000000e+01 3.001198013008e+01 3.721013976270e-08 -9.561563513861e-10 0.000000000000e+00 
1.800000000000e+01 3.001203819597e+01 1.218295955529e-08 -1.012883618676e-09 0.000000000000e+00 
1.900000000000e+01 3.001235485317e+01 8.904164927607e-09 -1.064552881067e-09 0.000000000000e+00 
2.000000000000e+01 3.001245231465e+01 1.612488934724e-08 -1.127323562871e-09 0.000000000000e+00 
2.100000000000e+01 3.001253073265e+01 4.524940692834e-08 -1.221879934234e-09 0.000000000000e+00 
2.200000000000e+01 3.001255290334e+01 3.400408938571e-07 -1.573687573470e-09 0.000000000000e+00 
2.300000000000e+01 3.001255673510e+01 3.950044837593e-07 -2.203693817211e-09 0.000000000000e+00 