VARIABLES = "Time","Value"
ZONE T=obs_00050
0.000000000000e+00 0.000000000000e+00
8.640000000000e+04 2.855670418754e-07
1.728000000000e+05 2.855683943975e-07
2.592000000000e+05 2.855694313432e-07
3.456000000000e+05 2.855707677669e-07
4.320000000000e+05 2.855717783105e-07
5.184000000000e+05 2.855723769922e-07
6.048000000000e+05 2.855735766088e-07
6.912000000000e+05 2.855735975406e-07
7.776000000000e+05 2.855746573835e-07
8.640000000000e+05 2.855754912129e-07
9.504000000000e+05 2.855757504537e-07
1.036800000000e+06 2.855756240247e-07
1.123200000000e+06 2.855754273538e-07
1.209600000000e+06 2.855746606070e-07
1.296000000000e+06 2.855730145435e-07
1.382400000000e+06 2.855710545437e-07
1.468800000000e+06 2.855677285431e-07
1.555200000000e+06 2.855640248769e-07
1.641600000000e+06 2.855592623101e-07
1.728000000000e+06 2.855530497574e-07
1.814400000000e+06 2.855462303507e-07
1.900800000000e+06 2.855385397723e-07
1.987200000000e+06 2.855291760615e-07
2.073600000000e+06 2.855183250333e-07
2.160000000000e+06 2.855067040886e-07
2.246400000000e+06 2.854934956909e-07
2.332800000000e+06 2.854789161768e-07
2.419200000000e+06 2.854625689019e-07
2.505600000000e+06 2.854457036994e-07
2.592000000000e+06 2.854275450714e-07
2.678400000000e+06 2.854082465244e-07
2.764800000000e+06 2.853881139048e-07
2.851200000000e+06 2.853661344705e-07
2.937600000000e+06 2.853448053799e-07
3.024000000000e+06 2.853225081756e-07
3.110400000000e+06 2.852995645395e-07
3.196800000000e+06 2.852773008914e-07
3.283200000000e+06 2.852555609798e-07
3.369600000000e+06 2.852340940774e-07
3.456000000000e+06 2.852139649589e-07
3.542400000000e+06 2.851947766590e-07
3.628800000000e+06 2.851774601046e-07
3.715200000000e+06 2.851619072832e-07
3.801600000000e+06 2.851478796406e-07
3.888000000000e+06 2.851363097345e-07
3.974400000000e+06 2.851268674631e-07
4.060800000000e+06 2.851206070111e-07
4.147200000000e+06 2.851156882391e-07
4.233600000000e+06 2.851129401006e-07
4.320000000000e+06 2.851131746629e-07
4.406400000000e+06 2.851151673961e-07
4.492800000000e+06 2.851193167734e-07
4.579200000000e+06 2.851249446660e-07
4.665600000000e+06 2.851323868731e-07
4.752000000000e+06 2.851405696772e-07
4.838400000000e+06 2.851504501657e-07
4.924800000000e+06 2.851617774301e-07
5.011200000000e+06 2.851734401975e-07
5.097600000000e+06 2.851860237409e-07
5.184000000000e+06 2.851980113360e-07
5.270400000000e+06 2.852122234114e-07
5.356800000000e+06 2.852266861342e-07
5.443200000000e+06 2.852411676360e-07
5.529600000000e+06 2.852562902462e-07
5.616000000000e+06 2.852723005969e-07
5.702400000000e+06 2.852883341672e-07
5.788800000000e+06 2.853051852647e-07
5.875200000000e+06 2.853215061330e-07
5.961600000000e+06 2.853386337867e-07
6.048000000000e+06 2.853567915873e-07
6.134400000000e+06 2.853760231345e-07
6.220800000000e+06 2.853963272931e-07
6.307200000000e+06 2.854182920236e-07
