VARIABLES = "Time","Value"
ZONE T=obs_00990
0.000000000000e+00 0.000000000000e+00
8.640000000000e+04 5.654772870145e-06
1.728000000000e+05 5.684857378434e-06
2.592000000000e+05 5.659416236827e-06
3.456000000000e+05 5.640484257124e-06
4.320000000000e+05 5.548730920025e-06
5.184000000000e+05 5.517425766060e-06
6.048000000000e+05 5.523117736836e-06
6.912000000000e+05 5.587121451338e-06
7.776000000000e+05 5.670975481140e-06
8.640000000000e+05 5.721059938687e-06
9.504000000000e+05 5.646681230394e-06
1.036800000000e+06 5.552979604982e-06
1.123200000000e+06 5.632664772051e-06
1.209600000000e+06 5.687159940327e-06
1.296000000000e+06 5.615319599957e-06
1.382400000000e+06 5.623745084417e-06
1.468800000000e+06 5.538433446366e-06
1.555200000000e+06 5.536055248222e-06
1.641600000000e+06 5.660735079733e-06
1.728000000000e+06 5.616201663982e-06
1.814400000000e+06 5.678334563422e-06
1.900800000000e+06 5.723030621655e-06
1.987200000000e+06 5.781904387682e-06
2.073600000000e+06 5.678686635744e-06
2.160000000000e+06 5.755122837917e-06
2.246400000000e+06 5.757546300477e-06
2.332800000000e+06 5.817145108194e-06
2.419200000000e+06 5.847942721334e-06
2.505600000000e+06 5.884531385306e-06
2.592000000000e+06 5.895653116947e-06
2.678400000000e+06 5.957472573799e-06
2.764800000000e+06 5.863405599381e-06
2.851200000000e+06 5.862293694840e-06
2.937600000000e+06 5.878621357955e-06
3.024000000000e+06 5.759440042094e-06
3.110400000000e+06 5.713708897128e-06
3.196800000000e+06 5.777865126519e-06
3.283200000000e+06 5.841569193947e-06
3.369600000000e+06 5.790512893241e-06
3.456000000000e+06 5.737037053198e-06
3.542400000000e+06 5.661888939553e-06
3.628800000000e+06 5.660946301950e-06
3.715200000000e+06 5.775470706016e-06
3.801600000000e+06 5.713968271172e-06
3.888000000000e+06 5.610100798626e-06
3.974400000000e+06 5.528129080826e-06
4.060800000000e+06 5.597664290964e-06
4.147200000000e+06 5.657331656382e-06
4.233600000000e+06 5.705032207854e-06
4.320000000000e+06 5.742961496316e-06
4.406400000000e+06 5.760862042379e-06
4.492800000000e+06 5.803019609790e-06
4.579200000000e+06 5.796284211371e-06
4.665600000000e+06 5.830052598683e-06
4.752000000000e+06 5.848615601462e-06
4.838400000000e+06 5.737231128620e-06
4.924800000000e+06 5.784836565199e-06
5.011200000000e+06 5.808724015108e-06
5.097600000000e+06 5.856085826631e-06
5.184000000000e+06 5.880075258380e-06
5.270400000000e+06 5.849090604921e-06
5.356800000000e+06 5.880349484340e-06
5.443200000000e+06 5.816726908717e-06
5.529600000000e+06 5.891048810871e-06
5.616000000000e+06 5.880021578598e-06
5.702400000000e+06 5.920714140271e-06
5.788800000000e+06 5.897341023146e-06
5.875200000000e+06 5.793725652691e-06
5.961600000000e+06 5.695763921998e-06
6.048000000000e+06 5.612769292494e-06
6.134400000000e+06 5.621532628418e-06
6.220800000000e+06 5.718947204947e-06
6.307200000000e+06 5.823408702660e-06
