VARIABLES = "X","Y","Z",VELOCITY1_X,VELOCITY1_Y,VELOCITY1_Z
ZONE T="0.000000000000e+00s", 
9.990000000000e+02 0.000000000000e+00 5.000000000000e-01 0.000000000000e+00 0.000000000000e+00 0.000000000000e+00
9.990000000000e+02 0.000000000000e+00 1.500000000000e+00 0.000000000000e+00 0.000000000000e+00 0.000000000000e+00
9.990000000000e+02 0.000000000000e+00 2.500000000000e+00 0.000000000000e+00 0.000000000000e+00 0.000000000000e+00
9.990000000000e+02 0.000000000000e+00 3.500000000000e+00 0.000000000000e+00 0.000000000000e+00 0.000000000000e+00
9.990000000000e+02 0.000000000000e+00 4.500000000000e+00 0.000000000000e+00 0.000000000000e+00 0.000000000000e+00
9.990000000000e+02 0.000000000000e+00 5.500000000000e+00 0.000000000000e+00 0.000000000000e+00 0.000000000000e+00
9.990000000000e+02 0.000000000000e+00 6.500000000000e+00 0.000000000000e+00 0.000000000000e+00 0.000000000000e+00
9.990000000000e+02 0.000000000000e+00 7.500000000000e+00 0.000000000000e+00 0.000000000000e+00 0.000000000000e+00
9.990000000000e+02 0.000000000000e+00 8.500000000000e+00 0.000000000000e+00 0.000000000000e+00 0.000000000000e+00
9.990000000000e+02 0.000000000000e+00 9.500000000000e+00 0.000000000000e+00 0.000000000000e+00 0.000000000000e+00
9.990000000000e+02 0.000000000000e+00 1.050000000000e+01 0.000000000000e+00 0.000000000000e+00 0.000000000000e+00
9.990000000000e+02 0.000000000000e+00 1.150000000000e+01 0.000000000000e+00 0.000000000000e+00 0.000000000000e+00
9.990000000000e+02 0.000000000000e+00 1.250000000000e+01 0.000000000000e+00 0.000000000000e+00 0.000000000000e+00
9.990000000000e+02 0.000000000000e+00 1.350000000000e+01 0.000000000000e+00 0.000000000000e+00 0.000000000000e+00
9.990000000000e+02 0.000000000000e+00 1.450000000000e+01 0.000000000000e+00 0.000000000000e+00 0.000000000000e+00
9.990000000000e+02 0.000000000000e+00 1.550000000000e+01 0.000000000000e+00 0.000000000000e+00 0.000000000000e+00
9.990000000000e+02 0.000000000000e+00 1.650000000000e+01 0.000000000000e+00 0.000000000000e+00 0.000000000000e+00
9.990000000000e+02 0.000000000000e+00 1.750000000000e+01 0.000000000000e+00 0.000000000000e+00 0.000000000000e+00
9.990000000000e+02 0.000000000000e+00 1.850000000000e+01 0.000000000000e+00 0.000000000000e+00 0.000000000000e+00
9.990000000000e+02 0.000000000000e+00 1.950000000000e+01 0.000000000000e+00 0.000000000000e+00 0.000000000000e+00
9.990000000000e+02 0.000000000000e+00 2.050000000000e+01 0.000000000000e+00 0.000000000000e+00 0.000000000000e+00
9.990000000000e+02 0.000000000000e+00 2.150000000000e+01 0.000000000000e+00 0.000000000000e+00 0.000000000000e+00
9.990000000000e+02 0.000000000000e+00 2.250000000000e+01 0.000000000000e+00 0.000000000000e+00 0.000000000000e+00
9.990000000000e+02 0.000000000000e+00 2.350000000000e+01 0.000000000000e+00 0.000000000000e+00 0.000000000000e+00
9.990000000000e+02 0.000000000000e+00 2.450000000000e+01 0.000000000000e+00 0.000000000000e+00 0.000000000000e+00
9.990000000000e+02 0.000000000000e+00 2.550000000000e+01 0.000000000000e+00 0.000000000000e+00 0.000000000000e+00
9.990000000000e+02 0.000000000000e+00 2.650000000000e+01 0.000000000000e+00 0.000000000000e+00 0.000000000000e+00
9.990000000000e+02 0.000000000000e+00 2.750000000000e+01 0.000000000000e+00 0.000000000000e+00 0.000000000000e+00
9.990000000000e+02 0.000000000000e+00 2.850000000000e+01 0.000000000000e+00 0.000000000000e+00 0.000000000000e+00
9.990000000000e+02 0.000000000000e+00 2.950000000000e+01 0.000000000000e+00 0.000000000000e+00 0.000000000000e+00
VARIABLES = "X","Y","Z",VELOCITY1_X,VELOCITY1_Y,VELOCITY1_Z
ZONE T="1.797693134862e+308s", 
9.990000000000e+02 0.000000000000e+00 5.000000000000e-01 1.343078435860e-06 -4.817016514527e-12 0.000000000000e+00
9.990000000000e+02 0.000000000000e+00 1.500000000000e+00 2.570808703188e-08 -9.726664627518e-12 0.000000000000e+00
9.990000000000e+02 0.000000000000e+00 2.500000000000e+00 3.941985025925e-09 -9.833792881800e-12 0.000000000000e+00
9.990000000000e+02 0.000000000000e+00 3.500000000000e+00 6.063212167280e-08 -1.007778761418e-11 0.000000000000e+00
9.990000000000e+02 0.000000000000e+00 4.500000000000e+00 1.480100344933e-08 -1.036364702221e-11 0.000000000000e+00
9.990000000000e+02 0.000000000000e+00 5.500000000000e+00 9.998148418806e-07 -1.425617358937e-11 0.000000000000e+00
9.990000000000e+02 0.000000000000e+00 6.500000000000e+00 3.164036527674e-09 -1.810508635715e-11 0.000000000000e+00
9.990000000000e+02 0.000000000000e+00 7.500000000000e+00 8.159853142225e-10 -1.812218275555e-11 0.000000000000e+00
9.990000000000e+02 0.000000000000e+00 8.500000000000e+00 2.281561528334e-08 -1.826296697184e-11 0.000000000000e+00
9.990000000000e+02 0.000000000000e+00 9.500000000000e+00 8.064359112203e-07 -2.325080093360e-11 0.000000000000e+00
9.990000000000e+02 0.000000000000e+00 1.050000000000e+01 4.735073262101e-08 -2.838921206752e-11 0.000000000000e+00
9.990000000000e+02 0.000000000000e+00 1.150000000000e+01 2.451454731791e-08 -2.882815894621e-11 0.000000000000e+00
9.990000000000e+02 0.000000000000e+00 1.250000000000e+01 1.931786008751e-10 -2.898348037450e-11 0.000000000000e+00
9.990000000000e+02 0.000000000000e+00 1.350000000000e+01 6.878243032064e-07 -4.668496146606e-11 0.000000000000e+00
9.990000000000e+02 0.000000000000e+00 1.450000000000e+01 2.564321123034e-08 -6.506741411867e-11 0.000000000000e+00
9.990000000000e+02 0.000000000000e+00 1.550000000000e+01 1.346758906579e-08 -6.614803374723e-11 0.000000000000e+00
9.990000000000e+02 0.000000000000e+00 1.650000000000e+01 5.508118720172e-08 -6.828639694240e-11 0.000000000000e+00
9.990000000000e+02 0.000000000000e+00 1.750000000000e+01 2.075578193899e-08 -7.072416363263e-11 0.000000000000e+00
9.990000000000e+02 0.000000000000e+00 1.850000000000e+01 4.013862029605e-09 -7.159039483544e-11 0.000000000000e+00
9.990000000000e+02 0.000000000000e+00 1.950000000000e+01 1.399010725738e-08 -7.248401768299e-11 0.000000000000e+00
9.990000000000e+02 0.000000000000e+00 2.050000000000e+01 1.861215463697e-08 -7.424374019283e-11 0.000000000000e+00
9.990000000000e+02 0.000000000000e+00 2.150000000000e+01 7.285898283188e-08 -7.951483113632e-11 0.000000000000e+00
9.990000000000e+02 0.000000000000e+00 2.250000000000e+01 6.146620675703e-07 -1.200022001577e-10 0.000000000000e+00
9.990000000000e+02 0.000000000000e+00 2.350000000000e+01 1.839276406226e-07 -1.674248946229e-10 0.000000000000e+00
9.990000000000e+02 0.000000000000e+00 2.450000000000e+01 3.721720953259e-09 -1.791446190305e-10 0.000000000000e+00
9.990000000000e+02 0.000000000000e+00 2.550000000000e+01 4.280324740224e-07 -2.770621957531e-10 0.000000000000e+00
9.990000000000e+02 0.000000000000e+00 2.650000000000e+01 1.857961942361e-09 -3.787918328312e-10 0.000000000000e+00
9.990000000000e+02 0.000000000000e+00 2.750000000000e+01 1.132364028594e-07 -8.605248633442e-10 0.000000000000e+00
9.990000000000e+02 0.000000000000e+00 2.850000000000e+01 1.484316933955e-07 -2.301589085784e-09 0.000000000000e+00
9.990000000000e+02 0.000000000000e+00 2.950000000000e+01 3.173479714062e-09 -4.450904444502e-09 0.000000000000e+00
VARIABLES = "X","Y","Z",VELOCITY1_X,VELOCITY1_Y,VELOCITY1_Z
ZONE T="0.000000000000e+00s", 
9.990000000000e+02 0.000000000000e+00 5.000000000000e-01 0.000000000000e+00 0.000000000000e+00 0.000000000000e+00
9.990000000000e+02 0.000000000000e+00 1.500000000000e+00 0.000000000000e+00 0.000000000000e+00 0.000000000000e+00
9.990000000000e+02 0.000000000000e+00 2.500000000000e+00 0.000000000000e+00 0.000000000000e+00 0.000000000000e+00
9.990000000000e+02 0.000000000000e+00 3.500000000000e+00 0.000000000000e+00 0.000000000000e+00 0.000000000000e+00
9.990000000000e+02 0.000000000000e+00 4.500000000000e+00 0.000000000000e+00 0.000000000000e+00 0.000000000000e+00
9.990000000000e+02 0.000000000000e+00 5.500000000000e+00 0.000000000000e+00 0.000000000000e+00 0.000000000000e+00
9.990000000000e+02 0.000000000000e+00 6.500000000000e+00 0.000000000000e+00 0.000000000000e+00 0.000000000000e+00
9.990000000000e+02 0.000000000000e+00 7.500000000000e+00 0.000000000000e+00 0.000000000000e+00 0.000000000000e+00
9.990000000000e+02 0.000000000000e+00 8.500000000000e+00 0.000000000000e+00 0.000000000000e+00 0.000000000000e+00
9.990000000000e+02 0.000000000000e+00 9.500000000000e+00 0.000000000000e+00 0.000000000000e+00 0.000000000000e+00
9.990000000000e+02 0.000000000000e+00 1.050000000000e+01 0.000000000000e+00 0.000000000000e+00 0.000000000000e+00
9.990000000000e+02 0.000000000000e+00 1.150000000000e+01 0.000000000000e+00 0.000000000000e+00 0.000000000000e+00
9.990000000000e+02 0.000000000000e+00 1.250000000000e+01 0.000000000000e+00 0.000000000000e+00 0.000000000000e+00
9.990000000000e+02 0.000000000000e+00 1.350000000000e+01 0.000000000000e+00 0.000000000000e+00 0.000000000000e+00
9.990000000000e+02 0.000000000000e+00 1.450000000000e+01 0.000000000000e+00 0.000000000000e+00 0.000000000000e+00
9.990000000000e+02 0.000000000000e+00 1.550000000000e+01 0.000000000000e+00 0.000000000000e+00 0.000000000000e+00
9.990000000000e+02 0.000000000000e+00 1.650000000000e+01 0.000000000000e+00 0.000000000000e+00 0.000000000000e+00
9.990000000000e+02 0.000000000000e+00 1.750000000000e+01 0.000000000000e+00 0.000000000000e+00 0.000000000000e+00
9.990000000000e+02 0.000000000000e+00 1.850000000000e+01 0.000000000000e+00 0.000000000000e+00 0.000000000000e+00
9.990000000000e+02 0.000000000000e+00 1.950000000000e+01 0.000000000000e+00 0.000000000000e+00 0.000000000000e+00
9.990000000000e+02 0.000000000000e+00 2.050000000000e+01 0.000000000000e+00 0.000000000000e+00 0.000000000000e+00
9.990000000000e+02 0.000000000000e+00 2.150000000000e+01 0.000000000000e+00 0.000000000000e+00 0.000000000000e+00
9.990000000000e+02 0.000000000000e+00 2.250000000000e+01 0.000000000000e+00 0.000000000000e+00 0.000000000000e+00
9.990000000000e+02 0.000000000000e+00 2.350000000000e+01 0.000000000000e+00 0.000000000000e+00 0.000000000000e+00
9.990000000000e+02 0.000000000000e+00 2.450000000000e+01 0.000000000000e+00 0.000000000000e+00 0.000000000000e+00
9.990000000000e+02 0.000000000000e+00 2.550000000000e+01 0.000000000000e+00 0.000000000000e+00 0.000000000000e+00
9.990000000000e+02 0.000000000000e+00 2.650000000000e+01 0.000000000000e+00 0.000000000000e+00 0.000000000000e+00
9.990000000000e+02 0.000000000000e+00 2.750000000000e+01 0.000000000000e+00 0.000000000000e+00 0.000000000000e+00
9.990000000000e+02 0.000000000000e+00 2.850000000000e+01 0.000000000000e+00 0.000000000000e+00 0.000000000000e+00
9.990000000000e+02 0.000000000000e+00 2.950000000000e+01 0.000000000000e+00 0.000000000000e+00 0.000000000000e+00
VARIABLES = "X","Y","Z",VELOCITY1_X,VELOCITY1_Y,VELOCITY1_Z
ZONE T="8.640000000000e+04s", 
9.990000000000e+02 0.000000000000e+00 5.000000000000e-01 1.342584546733e-06 -4.758984873568e-12 0.000000000000e+00
9.990000000000e+02 0.000000000000e+00 1.500000000000e+00 2.569861574233e-08 -9.592403284644e-12 0.000000000000e+00
9.990000000000e+02 0.000000000000e+00 2.500000000000e+00 3.940491076229e-09 -9.659856390684e-12 0.000000000000e+00
9.990000000000e+02 0.000000000000e+00 3.500000000000e+00 6.060650430251e-08 -9.858912878423e-12 0.000000000000e+00
9.990000000000e+02 0.000000000000e+00 4.500000000000e+00 1.479466438337e-08 -1.009794944081e-11 0.000000000000e+00
9.990000000000e+02 0.000000000000e+00 5.500000000000e+00 9.993689546023e-07 -1.389920459823e-11 0.000000000000e+00
9.990000000000e+02 0.000000000000e+00 6.500000000000e+00 3.162568235934e-09 -1.765519512825e-11 0.000000000000e+00
9.990000000000e+02 0.000000000000e+00 7.500000000000e+00 8.154285473895e-10 -1.760034971513e-11 0.000000000000e+00
9.990000000000e+02 0.000000000000e+00 8.500000000000e+00 2.278603219846e-08 -1.761116714539e-11 0.000000000000e+00
9.990000000000e+02 0.000000000000e+00 9.500000000000e+00 8.053679682452e-07 -2.226044882432e-11 0.000000000000e+00
9.990000000000e+02 0.000000000000e+00 1.050000000000e+01 4.728780597261e-08 -2.705322238917e-11 0.000000000000e+00
9.990000000000e+02 0.000000000000e+00 1.150000000000e+01 2.448111171408e-08 -2.733007531635e-11 0.000000000000e+00
9.990000000000e+02 0.000000000000e+00 1.250000000000e+01 1.926741741968e-10 -2.713563773688e-11 0.000000000000e+00
9.990000000000e+02 0.000000000000e+00 1.350000000000e+01 6.805409111463e-07 -4.103316808466e-11 0.000000000000e+00
9.990000000000e+02 0.000000000000e+00 1.450000000000e+01 2.537032931192e-08 -5.530096654545e-11 0.000000000000e+00
9.990000000000e+02 0.000000000000e+00 1.550000000000e+01 1.331817507986e-08 -5.482955578200e-11 0.000000000000e+00
9.990000000000e+02 0.000000000000e+00 1.650000000000e+01 5.442544923867e-08 -5.511347946626e-11 0.000000000000e+00
9.990000000000e+02 0.000000000000e+00 1.750000000000e+01 2.050221842159e-08 -5.557262209819e-11 0.000000000000e+00
9.990000000000e+02 0.000000000000e+00 1.850000000000e+01 3.960027648904e-09 -5.456391934495e-11 0.000000000000e+00
9.990000000000e+02 0.000000000000e+00 1.950000000000e+01 1.374514846006e-08 -5.308041531223e-11 0.000000000000e+00
9.990000000000e+02 0.000000000000e+00 2.050000000000e+01 1.825961248802e-08 -5.196423895718e-11 0.000000000000e+00
9.990000000000e+02 0.000000000000e+00 2.150000000000e+01 7.139440318720e-08 -5.323274216586e-11 0.000000000000e+00
9.990000000000e+02 0.000000000000e+00 2.250000000000e+01 6.020936116413e-07 -7.997137177130e-11 0.000000000000e+00
9.990000000000e+02 0.000000000000e+00 2.350000000000e+01 1.801488450670e-07 -1.116585135081e-10 0.000000000000e+00
9.990000000000e+02 0.000000000000e+00 2.450000000000e+01 3.636774735686e-09 -1.169518169644e-10 0.000000000000e+00
9.990000000000e+02 0.000000000000e+00 2.550000000000e+01 4.118751646344e-07 -1.713224786376e-10 0.000000000000e+00
9.990000000000e+02 0.000000000000e+00 2.650000000000e+01 1.769713921332e-09 -2.250523312227e-10 0.000000000000e+00
9.990000000000e+02 0.000000000000e+00 2.750000000000e+01 1.009469195735e-07 -4.620770400098e-10 0.000000000000e+00
9.990000000000e+02 0.000000000000e+00 2.850000000000e+01 1.318177727748e-07 -1.196485612611e-09 0.000000000000e+00
9.990000000000e+02 0.000000000000e+00 2.950000000000e+01 2.586928793130e-09 -2.246797213067e-09 0.000000000000e+00
VARIABLES = "X","Y","Z",VELOCITY1_X,VELOCITY1_Y,VELOCITY1_Z
ZONE T="1.728000000000e+05s", 
9.990000000000e+02 0.000000000000e+00 5.000000000000e-01 1.341971449538e-06 -4.727687397190e-12 0.000000000000e+00
9.990000000000e+02 0.000000000000e+00 1.500000000000e+00 2.568687172324e-08 -9.524451943273e-12 0.000000000000e+00
9.990000000000e+02 0.000000000000e+00 2.500000000000e+00 3.938671369024e-09 -9.583007413540e-12 0.000000000000e+00
9.990000000000e+02 0.000000000000e+00 3.500000000000e+00 6.057739562331e-08 -9.774384529987e-12 0.000000000000e+00
9.990000000000e+02 0.000000000000e+00 4.500000000000e+00 1.478752816710e-08 -1.000635485202e-11 0.000000000000e+00
9.990000000000e+02 0.000000000000e+00 5.500000000000e+00 9.988810401589e-07 -1.378202358122e-11 0.000000000000e+00
9.990000000000e+02 0.000000000000e+00 6.500000000000e+00 3.161007067288e-09 -1.751444738004e-11 0.000000000000e+00
9.990000000000e+02 0.000000000000e+00 7.500000000000e+00 8.149773175962e-10 -1.747403173315e-11 0.000000000000e+00
9.990000000000e+02 0.000000000000e+00 8.500000000000e+00 2.277022684560e-08 -1.753947863719e-11 0.000000000000e+00
9.990000000000e+02 0.000000000000e+00 9.500000000000e+00 8.048072330283e-07 -2.226377174160e-11 0.000000000000e+00
9.990000000000e+02 0.000000000000e+00 1.050000000000e+01 4.725489559367e-08 -2.713295592744e-11 0.000000000000e+00
9.990000000000e+02 0.000000000000e+00 1.150000000000e+01 2.446414654524e-08 -2.748185470096e-11 0.000000000000e+00
9.990000000000e+02 0.000000000000e+00 1.250000000000e+01 1.926043543427e-10 -2.760797602178e-11 0.000000000000e+00
9.990000000000e+02 0.000000000000e+00 1.350000000000e+01 6.817875516586e-07 -4.445926144328e-11 0.000000000000e+00
9.990000000000e+02 0.000000000000e+00 1.450000000000e+01 2.541776786632e-08 -6.201044857758e-11 0.000000000000e+00
9.990000000000e+02 0.000000000000e+00 1.550000000000e+01 1.334759963794e-08 -6.330213363407e-11 0.000000000000e+00
9.990000000000e+02 0.000000000000e+00 1.650000000000e+01 5.458100468208e-08 -6.567533635701e-11 0.000000000000e+00
9.990000000000e+02 0.000000000000e+00 1.750000000000e+01 2.056633778944e-08 -6.838467588794e-11 0.000000000000e+00
9.990000000000e+02 0.000000000000e+00 1.850000000000e+01 3.976750284677e-09 -6.975362002881e-11 0.000000000000e+00
9.990000000000e+02 0.000000000000e+00 1.950000000000e+01 1.385670518292e-08 -7.157357687936e-11 0.000000000000e+00
9.990000000000e+02 0.000000000000e+00 2.050000000000e+01 1.843451173084e-08 -7.450078552551e-11 0.000000000000e+00
9.990000000000e+02 0.000000000000e+00 2.150000000000e+01 7.216764428381e-08 -8.108817844678e-11 0.000000000000e+00
9.990000000000e+02 0.000000000000e+00 2.250000000000e+01 6.088498337303e-07 -1.228503578529e-10 0.000000000000e+00
9.990000000000e+02 0.000000000000e+00 2.350000000000e+01 1.821903457568e-07 -1.715910896907e-10 0.000000000000e+00
9.990000000000e+02 0.000000000000e+00 2.450000000000e+01 3.687675100460e-09 -1.852649080415e-10 0.000000000000e+00
9.990000000000e+02 0.000000000000e+00 2.550000000000e+01 4.249707777997e-07 -2.948229789432e-10 0.000000000000e+00
9.990000000000e+02 0.000000000000e+00 2.650000000000e+01 1.849309081663e-09 -4.119330088971e-10 0.000000000000e+00
9.990000000000e+02 0.000000000000e+00 2.750000000000e+01 1.144908469887e-07 -9.857971966626e-10 0.000000000000e+00
9.990000000000e+02 0.000000000000e+00 2.850000000000e+01 1.502705581596e-07 -2.675480692422e-09 0.000000000000e+00
9.990000000000e+02 0.000000000000e+00 2.950000000000e+01 3.314119097893e-09 -5.256720194585e-09 0.000000000000e+00
VARIABLES = "X","Y","Z",VELOCITY1_X,VELOCITY1_Y,VELOCITY1_Z
ZONE T="2.592000000000e+05s", 
9.990000000000e+02 0.000000000000e+00 5.000000000000e-01 1.341206255296e-06 -4.693330044368e-12 0.000000000000e+00
9.990000000000e+02 0.000000000000e+00 1.500000000000e+00 2.567221579288e-08 -9.451081118278e-12 0.000000000000e+00
9.990000000000e+02 0.000000000000e+00 2.500000000000e+00 3.936403526297e-09 -9.497392038182e-12 0.000000000000e+00
9.990000000000e+02 0.000000000000e+00 3.500000000000e+00 6.054127508759e-08 -9.675436882097e-12 0.000000000000e+00
9.990000000000e+02 0.000000000000e+00 4.500000000000e+00 1.477867453017e-08 -9.893795473715e-12 0.000000000000e+00
9.990000000000e+02 0.000000000000e+00 5.500000000000e+00 9.982757751302e-07 -1.363179755313e-11 0.000000000000e+00
9.990000000000e+02 0.000000000000e+00 6.500000000000e+00 3.159068837335e-09 -1.732755044110e-11 0.000000000000e+00
9.990000000000e+02 0.000000000000e+00 7.500000000000e+00 8.144082302062e-10 -1.727180752241e-11 0.000000000000e+00
9.990000000000e+02 0.000000000000e+00 8.500000000000e+00 2.274910226753e-08 -1.731285783509e-11 0.000000000000e+00
9.990000000000e+02 0.000000000000e+00 9.500000000000e+00 8.040531252203e-07 -2.195508081772e-11 0.000000000000e+00
9.990000000000e+02 0.000000000000e+00 1.050000000000e+01 4.721055399852e-08 -2.674019378711e-11 0.000000000000e+00
9.990000000000e+02 0.000000000000e+00 1.150000000000e+01 2.444094994239e-08 -2.705713117070e-11 0.000000000000e+00
9.990000000000e+02 0.000000000000e+00 1.250000000000e+01 1.923503248478e-10 -2.704386623314e-11 0.000000000000e+00
9.990000000000e+02 0.000000000000e+00 1.350000000000e+01 6.792543205544e-07 -4.245122915867e-11 0.000000000000e+00
9.990000000000e+02 0.000000000000e+00 1.450000000000e+01 2.532282860049e-08 -5.840231146315e-11 0.000000000000e+00
9.990000000000e+02 0.000000000000e+00 1.550000000000e+01 1.329544524128e-08 -5.888248774524e-11 0.000000000000e+00
9.990000000000e+02 0.000000000000e+00 1.650000000000e+01 5.435010062358e-08 -6.025356011339e-11 0.000000000000e+00
9.990000000000e+02 0.000000000000e+00 1.750000000000e+01 2.047660521555e-08 -6.186071914601e-11 0.000000000000e+00
9.990000000000e+02 0.000000000000e+00 1.850000000000e+01 3.957256244168e-09 -6.200119296435e-11 0.000000000000e+00
9.990000000000e+02 0.000000000000e+00 1.950000000000e+01 1.376224123989e-08 -6.194244661604e-11 0.000000000000e+00
9.990000000000e+02 0.000000000000e+00 2.050000000000e+01 1.829528391964e-08 -6.249090978105e-11 0.000000000000e+00
9.990000000000e+02 0.000000000000e+00 2.150000000000e+01 7.157611894288e-08 -6.592835681029e-11 0.000000000000e+00
9.990000000000e+02 0.000000000000e+00 2.250000000000e+01 6.037343376150e-07 -9.915835160887e-11 0.000000000000e+00
9.990000000000e+02 0.000000000000e+00 2.350000000000e+01 1.806487668841e-07 -1.382235104049e-10 0.000000000000e+00
9.990000000000e+02 0.000000000000e+00 2.450000000000e+01 3.651137748308e-09 -1.467469014454e-10 0.000000000000e+00
9.990000000000e+02 0.000000000000e+00 2.550000000000e+01 4.167265578190e-07 -2.219548925487e-10 0.000000000000e+00
9.990000000000e+02 0.000000000000e+00 2.650000000000e+01 1.799707580958e-09 -2.981123569794e-10 0.000000000000e+00
9.990000000000e+02 0.000000000000e+00 2.750000000000e+01 1.061825066777e-07 -6.470595652236e-10 0.000000000000e+00
9.990000000000e+02 0.000000000000e+00 2.850000000000e+01 1.389205545635e-07 -1.707511964944e-09 0.000000000000e+00
9.990000000000e+02 0.000000000000e+00 2.950000000000e+01 2.845929381436e-09 -3.248703057098e-09 0.000000000000e+00
VARIABLES = "X","Y","Z",VELOCITY1_X,VELOCITY1_Y,VELOCITY1_Z
ZONE T="3.456000000000e+05s", 
9.990000000000e+02 0.000000000000e+00 5.000000000000e-01 1.340191115253e-06 -4.644169635743e-12 0.000000000000e+00
9.990000000000e+02 0.000000000000e+00 1.500000000000e+00 2.565277104070e-08 -9.342033747729e-12 0.000000000000e+00
9.990000000000e+02 0.000000000000e+00 2.500000000000e+00 3.933390889614e-09 -9.368184726632e-12 0.000000000000e+00
9.990000000000e+02 0.000000000000e+00 3.500000000000e+00 6.049305203794e-08 -9.523806459685e-12 0.000000000000e+00
9.990000000000e+02 0.000000000000e+00 4.500000000000e+00 1.476684651611e-08 -9.718962599690e-12 0.000000000000e+00
9.990000000000e+02 0.000000000000e+00 5.500000000000e+00 9.974655162634e-07 -1.339863929909e-11 0.000000000000e+00
9.990000000000e+02 0.000000000000e+00 6.500000000000e+00 3.156468751221e-09 -1.703557630111e-11 0.000000000000e+00
9.990000000000e+02 0.000000000000e+00 7.500000000000e+00 8.136281917564e-10 -1.695271818961e-11 0.000000000000e+00
9.990000000000e+02 0.000000000000e+00 8.500000000000e+00 2.271899473431e-08 -1.695236954739e-11 0.000000000000e+00
9.990000000000e+02 0.000000000000e+00 9.500000000000e+00 8.029770110933e-07 -2.145775923546e-11 0.000000000000e+00
9.990000000000e+02 0.000000000000e+00 1.050000000000e+01 4.714726540859e-08 -2.610364097426e-11 0.000000000000e+00
9.990000000000e+02 0.000000000000e+00 1.150000000000e+01 2.440779183480e-08 -2.636916331593e-11 0.000000000000e+00
9.990000000000e+02 0.000000000000e+00 1.250000000000e+01 1.919931156780e-10 -2.628895234255e-11 0.000000000000e+00
9.990000000000e+02 0.000000000000e+00 1.350000000000e+01 6.758109548431e-07 -4.079917972256e-11 0.000000000000e+00
9.990000000000e+02 0.000000000000e+00 1.450000000000e+01 2.519411276886e-08 -5.580373882981e-11 0.000000000000e+00
9.990000000000e+02 0.000000000000e+00 1.550000000000e+01 1.322634165918e-08 -5.608066964310e-11 0.000000000000e+00
9.990000000000e+02 0.000000000000e+00 1.650000000000e+01 5.405711155564e-08 -5.721350699626e-11 0.000000000000e+00
9.990000000000e+02 0.000000000000e+00 1.750000000000e+01 2.036482457248e-08 -5.857915806882e-11 0.000000000000e+00
9.990000000000e+02 0.000000000000e+00 1.850000000000e+01 3.934697351590e-09 -5.858935399949e-11 0.000000000000e+00
9.990000000000e+02 0.000000000000e+00 1.950000000000e+01 1.367293112559e-08 -5.851608911357e-11 0.000000000000e+00
9.990000000000e+02 0.000000000000e+00 2.050000000000e+01 1.817217563992e-08 -5.909238471323e-11 0.000000000000e+00
9.990000000000e+02 0.000000000000e+00 2.150000000000e+01 7.108249320347e-08 -6.247024064550e-11 0.000000000000e+00
9.990000000000e+02 0.000000000000e+00 2.250000000000e+01 5.995448219796e-07 -9.419714216066e-11 0.000000000000e+00
9.990000000000e+02 0.000000000000e+00 2.350000000000e+01 1.793931724011e-07 -1.314881999087e-10 0.000000000000e+00
9.990000000000e+02 0.000000000000e+00 2.450000000000e+01 3.624912688245e-09 -1.399647324997e-10 0.000000000000e+00
9.990000000000e+02 0.000000000000e+00 2.550000000000e+01 4.131041050790e-07 -2.144936436075e-10 0.000000000000e+00
9.990000000000e+02 0.000000000000e+00 2.650000000000e+01 1.783564061682e-09 -2.917739139524e-10 0.000000000000e+00
9.990000000000e+02 0.000000000000e+00 2.750000000000e+01 1.050466091215e-07 -6.561973608984e-10 0.000000000000e+00
9.990000000000e+02 0.000000000000e+00 2.850000000000e+01 1.374628938858e-07 -1.749110672166e-09 0.000000000000e+00
9.990000000000e+02 0.000000000000e+00 2.950000000000e+01 2.838297284405e-09 -3.381520671649e-09 0.000000000000e+00
VARIABLES = "X","Y","Z",VELOCITY1_X,VELOCITY1_Y,VELOCITY1_Z
ZONE T="4.320000000000e+05s", 
9.990000000000e+02 0.000000000000e+00 5.000000000000e-01 1.338225729544e-06 -4.507183545137e-12 0.000000000000e+00
9.990000000000e+02 0.000000000000e+00 1.500000000000e+00 2.561511094690e-08 -9.029941401917e-12 0.000000000000e+00
9.990000000000e+02 0.000000000000e+00 2.500000000000e+00 3.927523088565e-09 -8.979812101121e-12 0.000000000000e+00
9.990000000000e+02 0.000000000000e+00 3.500000000000e+00 6.039700640283e-08 -9.049907589124e-12 0.000000000000e+00
9.990000000000e+02 0.000000000000e+00 4.500000000000e+00 1.474321951070e-08 -9.156206189516e-12 0.000000000000e+00
9.990000000000e+02 0.000000000000e+00 5.500000000000e+00 9.958325369949e-07 -1.264576599948e-11 0.000000000000e+00
9.990000000000e+02 0.000000000000e+00 6.500000000000e+00 3.151182210627e-09 -1.608903509706e-11 0.000000000000e+00
9.990000000000e+02 0.000000000000e+00 7.500000000000e+00 8.118985977865e-10 -1.588375923295e-11 0.000000000000e+00
9.990000000000e+02 0.000000000000e+00 8.500000000000e+00 2.264229059564e-08 -1.567546769517e-11 0.000000000000e+00
9.990000000000e+02 0.000000000000e+00 9.500000000000e+00 8.002226874960e-07 -1.959295814829e-11 0.000000000000e+00
9.990000000000e+02 0.000000000000e+00 1.050000000000e+01 4.698513662861e-08 -2.363727759488e-11 0.000000000000e+00
9.990000000000e+02 0.000000000000e+00 1.150000000000e+01 2.432229485104e-08 -2.364409785871e-11 0.000000000000e+00
9.990000000000e+02 0.000000000000e+00 1.250000000000e+01 1.909017710933e-10 -2.305953331018e-11 0.000000000000e+00
9.990000000000e+02 0.000000000000e+00 1.350000000000e+01 6.624326437337e-07 -3.183915110130e-11 0.000000000000e+00
9.990000000000e+02 0.000000000000e+00 1.450000000000e+01 2.469328685701e-08 -4.067705769739e-11 0.000000000000e+00
9.990000000000e+02 0.000000000000e+00 1.550000000000e+01 1.295402864689e-08 -3.880969654292e-11 0.000000000000e+00
9.990000000000e+02 0.000000000000e+00 1.650000000000e+01 5.287619298541e-08 -3.736285628686e-11 0.000000000000e+00
9.990000000000e+02 0.000000000000e+00 1.750000000000e+01 1.991023367817e-08 -3.597625701071e-11 0.000000000000e+00
9.990000000000e+02 0.000000000000e+00 1.850000000000e+01 3.839742149768e-09 -3.343760947279e-11 0.000000000000e+00
9.990000000000e+02 0.000000000000e+00 1.950000000000e+01 1.325831063811e-08 -3.017070656978e-11 0.000000000000e+00
9.990000000000e+02 0.000000000000e+00 2.050000000000e+01 1.758210491717e-08 -2.687207475723e-11 0.000000000000e+00
9.990000000000e+02 0.000000000000e+00 2.150000000000e+01 6.865170307576e-08 -2.475943620407e-11 0.000000000000e+00
9.990000000000e+02 0.000000000000e+00 2.250000000000e+01 5.787356738665e-07 -3.680113169395e-11 0.000000000000e+00
9.990000000000e+02 0.000000000000e+00 2.350000000000e+01 1.731409816765e-07 -5.152324695092e-11 0.000000000000e+00
9.990000000000e+02 0.000000000000e+00 2.450000000000e+01 3.486391279996e-09 -5.106839855637e-11 0.000000000000e+00
9.990000000000e+02 0.000000000000e+00 2.550000000000e+01 3.881331046317e-07 -6.445515787615e-11 0.000000000000e+00
9.990000000000e+02 0.000000000000e+00 2.650000000000e+01 1.649810557275e-09 -7.445624269066e-11 0.000000000000e+00
9.990000000000e+02 0.000000000000e+00 2.750000000000e+01 8.721960234249e-08 -9.668566345580e-11 0.000000000000e+00
9.990000000000e+02 0.000000000000e+00 2.850000000000e+01 1.133937761539e-07 -2.003178648384e-10 0.000000000000e+00
9.990000000000e+02 0.000000000000e+00 2.950000000000e+01 2.002581367348e-09 -2.917782334136e-10 0.000000000000e+00
VARIABLES = "X","Y","Z",VELOCITY1_X,VELOCITY1_Y,VELOCITY1_Z
ZONE T="5.184000000000e+05s", 
9.990000000000e+02 0.000000000000e+00 5.000000000000e-01 1.335338572021e-06 -4.343983709880e-12 0.000000000000e+00
9.990000000000e+02 0.000000000000e+00 1.500000000000e+00 2.555980086865e-08 -8.665833911085e-12 0.000000000000e+00
9.990000000000e+02 0.000000000000e+00 2.500000000000e+00 3.918936607063e-09 -8.542577906658e-12 0.000000000000e+00
9.990000000000e+02 0.000000000000e+00 3.500000000000e+00 6.025849438650e-08 -8.534086265762e-12 0.000000000000e+00
9.990000000000e+02 0.000000000000e+00 4.500000000000e+00 1.470921415040e-08 -8.560125424510e-12 0.000000000000e+00
9.990000000000e+02 0.000000000000e+00 5.500000000000e+00 9.934967325481e-07 -1.185619705627e-11 0.000000000000e+00
9.990000000000e+02 0.000000000000e+00 6.500000000000e+00 3.143668501560e-09 -1.510687408660e-11 0.000000000000e+00
9.990000000000e+02 0.000000000000e+00 7.500000000000e+00 8.095921283137e-10 -1.482839284966e-11 0.000000000000e+00
9.990000000000e+02 0.000000000000e+00 8.500000000000e+00 2.255019844335e-08 -1.454092741184e-11 0.000000000000e+00
9.990000000000e+02 0.000000000000e+00 9.500000000000e+00 7.969299756269e-07 -1.810877756544e-11 0.000000000000e+00
9.990000000000e+02 0.000000000000e+00 1.050000000000e+01 4.679150081627e-08 -2.179553078165e-11 0.000000000000e+00
9.990000000000e+02 0.000000000000e+00 1.150000000000e+01 2.422092167461e-08 -2.170921983830e-11 0.000000000000e+00
9.990000000000e+02 0.000000000000e+00 1.250000000000e+01 1.898670616318e-10 -2.119302867324e-11 0.000000000000e+00
9.990000000000e+02 0.000000000000e+00 1.350000000000e+01 6.534501591700e-07 -2.974461768671e-11 0.000000000000e+00