VARIABLES = "Time","Value"
ZONE T=obs_00900
0.000000000000e+00 0.000000000000e+00
8.640000000000e+04 5.186593613112e-06
1.728000000000e+05 5.183495021680e-06
2.592000000000e+05 5.179755542669e-06
3.456000000000e+05 5.174752975784e-06
4.320000000000e+05 5.164150509886e-06
5.184000000000e+05 5.149375211151e-06
6.048000000000e+05 5.134545499804e-06
6.912000000000e+05 5.125251479642e-06
7.776000000000e+05 5.124991206200e-06
8.640000000000e+05 5.132265768330e-06
9.504000000000e+05 5.137755020958e-06
1.036800000000e+06 5.135028302875e-06
1.123200000000e+06 5.132534714656e-06
1.209600000000e+06 5.134837197568e-06
1.296000000000e+06 5.135458408615e-06
1.382400000000e+06 5.134667129559e-06
1.468800000000e+06 5.128423123030e-06
1.555200000000e+06 5.119396244844e-06
1.641600000000e+06 5.117586341434e-06
1.728000000000e+06 5.118092439856e-06
1.814400000000e+06 5.122319552304e-06
1.900800000000e+06 5.130833338424e-06
1.987200000000e+06 5.144059980472e-06
2.073600000000e+06 5.152324276147e-06
2.160000000000e+06 5.160568309135e-06
2.246400000000e+06 5.169128725769e-06
2.332800000000e+06 5.180525925864e-06
2.419200000000e+06 5.194451337095e-06
2.505600000000e+06 5.210437760929e-06
2.592000000000e+06 5.226629135920e-06
2.678400000000e+06 5.244912918364e-06
2.764800000000e+06 5.257465339777e-06
2.851200000000e+06 5.265059765846e-06
2.937600000000e+06 5.271004650902e-06
3.024000000000e+06 5.269232004159e-06
3.110400000000e+06 5.260498198000e-06
3.196800000000e+06 5.253345471365e-06
3.283200000000e+06 5.252631716597e-06
3.369600000000e+06 5.252640716380e-06
3.456000000000e+06 5.249032254601e-06
3.542400000000e+06 5.239153541024e-06
3.628800000000e+06 5.226892976920e-06
3.715200000000e+06 5.221921338719e-06
3.801600000000e+06 5.218577062730e-06
3.888000000000e+06 5.209216202270e-06
3.974400000000e+06 5.192052113080e-06
4.060800000000e+06 5.176675571781e-06
4.147200000000e+06 5.168361781332e-06
4.233600000000e+06 5.167434603720e-06
4.320000000000e+06 5.172194413490e-06
4.406400000000e+06 5.179955705434e-06
4.492800000000e+06 5.190485697857e-06
4.579200000000e+06 5.200976167554e-06
4.665600000000e+06 5.212053123038e-06
4.752000000000e+06 5.223647804103e-06
4.838400000000e+06 5.227947919255e-06
4.924800000000e+06 5.230101715739e-06
5.011200000000e+06 5.233389195189e-06
5.097600000000e+06 5.240115023490e-06
5.184000000000e+06 5.249576286611e-06
5.270400000000e+06 5.257612608807e-06
5.356800000000e+06 5.265549458860e-06
5.443200000000e+06 5.269346505539e-06
5.529600000000e+06 5.274657626916e-06
5.616000000000e+06 5.280544775267e-06
5.702400000000e+06 5.288378816764e-06
5.788800000000e+06 5.295378123533e-06
5.875200000000e+06 5.294932265513e-06
5.961600000000e+06 5.284471131047e-06
6.048000000000e+06 5.265182004590e-06
6.134400000000e+06 5.244227684353e-06
6.220800000000e+06 5.231098215249e-06
6.307200000000e+06 5.230197142382e-06
