VARIABLES = "X","Y","Z",VELOCITY1_X,VELOCITY1_Y,VELOCITY1_Z
ZONE T="0.000000000000e+00s", 
7.490000000000e+02 0.000000000000e+00 5.000000000000e-01 0.000000000000e+00 0.000000000000e+00 0.000000000000e+00
7.500000000000e+02 0.000000000000e+00 5.000000000000e-01 0.000000000000e+00 0.000000000000e+00 0.000000000000e+00
7.490000000000e+02 0.000000000000e+00 1.500000000000e+00 0.000000000000e+00 0.000000000000e+00 0.000000000000e+00
7.500000000000e+02 0.000000000000e+00 1.500000000000e+00 0.000000000000e+00 0.000000000000e+00 0.000000000000e+00
7.490000000000e+02 0.000000000000e+00 2.500000000000e+00 0.000000000000e+00 0.000000000000e+00 0.000000000000e+00
7.500000000000e+02 0.000000000000e+00 2.500000000000e+00 0.000000000000e+00 0.000000000000e+00 0.000000000000e+00
7.490000000000e+02 0.000000000000e+00 3.500000000000e+00 0.000000000000e+00 0.000000000000e+00 0.000000000000e+00
7.500000000000e+02 0.000000000000e+00 3.500000000000e+00 0.000000000000e+00 0.000000000000e+00 0.000000000000e+00
7.490000000000e+02 0.000000000000e+00 4.500000000000e+00 0.000000000000e+00 0.000000000000e+00 0.000000000000e+00
7.500000000000e+02 0.000000000000e+00 4.500000000000e+00 0.000000000000e+00 0.000000000000e+00 0.000000000000e+00
7.490000000000e+02 0.000000000000e+00 5.500000000000e+00 0.000000000000e+00 0.000000000000e+00 0.000000000000e+00
7.500000000000e+02 0.000000000000e+00 5.500000000000e+00 0.000000000000e+00 0.000000000000e+00 0.000000000000e+00
7.490000000000e+02 0.000000000000e+00 6.500000000000e+00 0.000000000000e+00 0.000000000000e+00 0.000000000000e+00
7.500000000000e+02 0.000000000000e+00 6.500000000000e+00 0.000000000000e+00 0.000000000000e+00 0.000000000000e+00
7.490000000000e+02 0.000000000000e+00 7.500000000000e+00 0.000000000000e+00 0.000000000000e+00 0.000000000000e+00
7.500000000000e+02 0.000000000000e+00 7.500000000000e+00 0.000000000000e+00 0.000000000000e+00 0.000000000000e+00
7.490000000000e+02 0.000000000000e+00 8.500000000000e+00 0.000000000000e+00 0.000000000000e+00 0.000000000000e+00
7.500000000000e+02 0.000000000000e+00 8.500000000000e+00 0.000000000000e+00 0.000000000000e+00 0.000000000000e+00
7.490000000000e+02 0.000000000000e+00 9.500000000000e+00 0.000000000000e+00 0.000000000000e+00 0.000000000000e+00
7.500000000000e+02 0.000000000000e+00 9.500000000000e+00 0.000000000000e+00 0.000000000000e+00 0.000000000000e+00
7.490000000000e+02 0.000000000000e+00 1.050000000000e+01 0.000000000000e+00 0.000000000000e+00 0.000000000000e+00
7.500000000000e+02 0.000000000000e+00 1.050000000000e+01 0.000000000000e+00 0.000000000000e+00 0.000000000000e+00
7.490000000000e+02 0.000000000000e+00 1.150000000000e+01 0.000000000000e+00 0.000000000000e+00 0.000000000000e+00
7.500000000000e+02 0.000000000000e+00 1.150000000000e+01 0.000000000000e+00 0.000000000000e+00 0.000000000000e+00
7.490000000000e+02 0.000000000000e+00 1.250000000000e+01 0.000000000000e+00 0.000000000000e+00 0.000000000000e+00
7.500000000000e+02 0.000000000000e+00 1.250000000000e+01 0.000000000000e+00 0.000000000000e+00 0.000000000000e+00
7.490000000000e+02 0.000000000000e+00 1.350000000000e+01 0.000000000000e+00 0.000000000000e+00 0.000000000000e+00
7.500000000000e+02 0.000000000000e+00 1.350000000000e+01 0.000000000000e+00 0.000000000000e+00 0.000000000000e+00
7.490000000000e+02 0.000000000000e+00 1.450000000000e+01 0.000000000000e+00 0.000000000000e+00 0.000000000000e+00
7.500000000000e+02 0.000000000000e+00 1.450000000000e+01 0.000000000000e+00 0.000000000000e+00 0.000000000000e+00
7.490000000000e+02 0.000000000000e+00 1.550000000000e+01 0.000000000000e+00 0.000000000000e+00 0.000000000000e+00
7.500000000000e+02 0.000000000000e+00 1.550000000000e+01 0.000000000000e+00 0.000000000000e+00 0.000000000000e+00
7.490000000000e+02 0.000000000000e+00 1.650000000000e+01 0.000000000000e+00 0.000000000000e+00 0.000000000000e+00
7.500000000000e+02 0.000000000000e+00 1.650000000000e+01 0.000000000000e+00 0.000000000000e+00 0.000000000000e+00
7.490000000000e+02 0.000000000000e+00 1.750000000000e+01 0.000000000000e+00 0.000000000000e+00 0.000000000000e+00
7.500000000000e+02 0.000000000000e+00 1.750000000000e+01 0.000000000000e+00 0.000000000000e+00 0.000000000000e+00
7.490000000000e+02 0.000000000000e+00 1.850000000000e+01 0.000000000000e+00 0.000000000000e+00 0.000000000000e+00
7.500000000000e+02 0.000000000000e+00 1.850000000000e+01 0.000000000000e+00 0.000000000000e+00 0.000000000000e+00
7.490000000000e+02 0.000000000000e+00 1.950000000000e+01 0.000000000000e+00 0.000000000000e+00 0.000000000000e+00
7.500000000000e+02 0.000000000000e+00 1.950000000000e+01 0.000000000000e+00 0.000000000000e+00 0.000000000000e+00
7.490000000000e+02 0.000000000000e+00 2.050000000000e+01 0.000000000000e+00 0.000000000000e+00 0.000000000000e+00
7.500000000000e+02 0.000000000000e+00 2.050000000000e+01 0.000000000000e+00 0.000000000000e+00 0.000000000000e+00
7.490000000000e+02 0.000000000000e+00 2.150000000000e+01 0.000000000000e+00 0.000000000000e+00 0.000000000000e+00
7.500000000000e+02 0.000000000000e+00 2.150000000000e+01 0.000000000000e+00 0.000000000000e+00 0.000000000000e+00
7.490000000000e+02 0.000000000000e+00 2.250000000000e+01 0.000000000000e+00 0.000000000000e+00 0.000000000000e+00
7.500000000000e+02 0.000000000000e+00 2.250000000000e+01 0.000000000000e+00 0.000000000000e+00 0.000000000000e+00
7.490000000000e+02 0.000000000000e+00 2.350000000000e+01 0.000000000000e+00 0.000000000000e+00 0.000000000000e+00
7.500000000000e+02 0.000000000000e+00 2.350000000000e+01 0.000000000000e+00 0.000000000000e+00 0.000000000000e+00
7.490000000000e+02 0.000000000000e+00 2.450000000000e+01 0.000000000000e+00 0.000000000000e+00 0.000000000000e+00
7.500000000000e+02 0.000000000000e+00 2.450000000000e+01 0.000000000000e+00 0.000000000000e+00 0.000000000000e+00
7.490000000000e+02 0.000000000000e+00 2.550000000000e+01 0.000000000000e+00 0.000000000000e+00 0.000000000000e+00
7.500000000000e+02 0.000000000000e+00 2.550000000000e+01 0.000000000000e+00 0.000000000000e+00 0.000000000000e+00
7.490000000000e+02 0.000000000000e+00 2.650000000000e+01 0.000000000000e+00 0.000000000000e+00 0.000000000000e+00
7.500000000000e+02 0.000000000000e+00 2.650000000000e+01 0.000000000000e+00 0.000000000000e+00 0.000000000000e+00
7.490000000000e+02 0.000000000000e+00 2.750000000000e+01 0.000000000000e+00 0.000000000000e+00 0.000000000000e+00
7.500000000000e+02 0.000000000000e+00 2.750000000000e+01 0.000000000000e+00 0.000000000000e+00 0.000000000000e+00
7.490000000000e+02 0.000000000000e+00 2.850000000000e+01 0.000000000000e+00 0.000000000000e+00 0.000000000000e+00
7.500000000000e+02 0.000000000000e+00 2.850000000000e+01 0.000000000000e+00 0.000000000000e+00 0.000000000000e+00
7.490000000000e+02 0.000000000000e+00 2.950000000000e+01 0.000000000000e+00 0.000000000000e+00 0.000000000000e+00
7.500000000000e+02 0.000000000000e+00 2.950000000000e+01 0.000000000000e+00 0.000000000000e+00 0.000000000000e+00
VARIABLES = "X","Y","Z",VELOCITY1_X,VELOCITY1_Y,VELOCITY1_Z
ZONE T="1.797693134862e+308s", 
7.490000000000e+02 0.000000000000e+00 5.000000000000e-01 1.113130232336e-06 -6.909779735615e-10 0.000000000000e+00
7.500000000000e+02 0.000000000000e+00 5.000000000000e-01 1.114511052214e-06 -6.903301037537e-10 0.000000000000e+00
7.490000000000e+02 0.000000000000e+00 1.500000000000e+00 2.130566818861e-08 -1.395153133570e-09 0.000000000000e+00
7.500000000000e+02 0.000000000000e+00 1.500000000000e+00 2.133209905455e-08 -1.393845433662e-09 0.000000000000e+00
7.490000000000e+02 0.000000000000e+00 2.500000000000e+00 3.264990081314e-09 -1.410412834764e-09 0.000000000000e+00
7.500000000000e+02 0.000000000000e+00 2.500000000000e+00 3.269043657600e-09 -1.409090921426e-09 0.000000000000e+00
7.490000000000e+02 0.000000000000e+00 3.500000000000e+00 5.011128666971e-08 -1.443666630929e-09 0.000000000000e+00
7.500000000000e+02 0.000000000000e+00 3.500000000000e+00 5.017367762533e-08 -1.442315127713e-09 0.000000000000e+00
7.490000000000e+02 0.000000000000e+00 4.500000000000e+00 1.223007337019e-08 -1.482512171561e-09 0.000000000000e+00
7.500000000000e+02 0.000000000000e+00 4.500000000000e+00 1.224530476159e-08 -1.481126225957e-09 0.000000000000e+00
7.490000000000e+02 0.000000000000e+00 5.500000000000e+00 8.256508477776e-07 -2.005072990862e-09 0.000000000000e+00
7.500000000000e+02 0.000000000000e+00 5.500000000000e+00 8.266799254487e-07 -2.003229367865e-09 0.000000000000e+00
7.490000000000e+02 0.000000000000e+00 6.500000000000e+00 2.611200485848e-09 -2.521620944556e-09 0.000000000000e+00
7.500000000000e+02 0.000000000000e+00 6.500000000000e+00 2.614457608640e-09 -2.519325599431e-09 0.000000000000e+00
7.490000000000e+02 0.000000000000e+00 7.500000000000e+00 6.684707619197e-10 -2.523681318233e-09 0.000000000000e+00
7.500000000000e+02 0.000000000000e+00 7.500000000000e+00 6.693121729387e-10 -2.521384355337e-09 0.000000000000e+00
7.490000000000e+02 0.000000000000e+00 8.500000000000e+00 1.833897356562e-08 -2.535930325346e-09 0.000000000000e+00
7.500000000000e+02 0.000000000000e+00 8.500000000000e+00 1.836260112399e-08 -2.533627853509e-09 0.000000000000e+00
7.490000000000e+02 0.000000000000e+00 9.500000000000e+00 6.477570050157e-07 -2.965545022620e-09 0.000000000000e+00
7.500000000000e+02 0.000000000000e+00 9.500000000000e+00 6.485922633161e-07 -2.963054801629e-09 0.000000000000e+00
7.490000000000e+02 0.000000000000e+00 1.050000000000e+01 3.803017254945e-08 -3.407855355020e-09 0.000000000000e+00
7.500000000000e+02 0.000000000000e+00 1.050000000000e+01 3.807921525538e-08 -3.405171818618e-09 0.000000000000e+00
7.490000000000e+02 0.000000000000e+00 1.150000000000e+01 1.967587963053e-08 -3.445095340720e-09 0.000000000000e+00
7.500000000000e+02 0.000000000000e+00 1.150000000000e+01 1.970126812327e-08 -3.442395755714e-09 0.000000000000e+00
7.490000000000e+02 0.000000000000e+00 1.250000000000e+01 1.522386537938e-10 -3.457905339239e-09 0.000000000000e+00
7.500000000000e+02 0.000000000000e+00 1.250000000000e+01 1.524382470967e-10 -3.455200429742e-09 0.000000000000e+00
7.490000000000e+02 0.000000000000e+00 1.350000000000e+01 4.787556561968e-07 -3.807684598964e-09 0.000000000000e+00
7.500000000000e+02 0.000000000000e+00 1.350000000000e+01 4.794556746603e-07 -3.805360371555e-09 0.000000000000e+00
7.490000000000e+02 0.000000000000e+00 1.450000000000e+01 1.784212164064e-08 -4.170384201600e-09 0.000000000000e+00
7.500000000000e+02 0.000000000000e+00 1.450000000000e+01 1.786821253387e-08 -4.168455060518e-09 0.000000000000e+00
7.490000000000e+02 0.000000000000e+00 1.550000000000e+01 9.342087307987e-09 -4.190253901789e-09 0.000000000000e+00
7.500000000000e+02 0.000000000000e+00 1.550000000000e+01 9.355759087051e-09 -4.188346569893e-09 0.000000000000e+00
7.490000000000e+02 0.000000000000e+00 1.650000000000e+01 3.802262163756e-08 -4.224919680778e-09 0.000000000000e+00
7.500000000000e+02 0.000000000000e+00 1.650000000000e+01 3.807833436781e-08 -4.223050897279e-09 0.000000000000e+00
7.490000000000e+02 0.000000000000e+00 1.750000000000e+01 1.430464016057e-08 -4.263228865994e-09 0.000000000000e+00
7.500000000000e+02 0.000000000000e+00 1.750000000000e+01 1.432560801828e-08 -4.261402850732e-09 0.000000000000e+00
7.490000000000e+02 0.000000000000e+00 1.850000000000e+01 2.751181851995e-09 -4.275726593098e-09 0.000000000000e+00
7.500000000000e+02 0.000000000000e+00 1.850000000000e+01 2.755219503098e-09 -4.273914643341e-09 0.000000000000e+00
7.490000000000e+02 0.000000000000e+00 1.950000000000e+01 9.420566930954e-09 -4.284683927872e-09 0.000000000000e+00
7.500000000000e+02 0.000000000000e+00 1.950000000000e+01 9.434447325522e-09 -4.282882494826e-09 0.000000000000e+00
7.490000000000e+02 0.000000000000e+00 2.050000000000e+01 1.246432653626e-08 -4.300808103599e-09 0.000000000000e+00
7.500000000000e+02 0.000000000000e+00 2.050000000000e+01 1.248271383159e-08 -4.299025842672e-09 0.000000000000e+00
7.490000000000e+02 0.000000000000e+00 2.150000000000e+01 4.859850161153e-08 -4.345837294662e-09 0.000000000000e+00
7.500000000000e+02 0.000000000000e+00 2.150000000000e+01 4.867025478078e-08 -4.344109036292e-09 0.000000000000e+00
7.490000000000e+02 0.000000000000e+00 2.250000000000e+01 4.095487008414e-07 -4.683757477527e-09 0.000000000000e+00
7.500000000000e+02 0.000000000000e+00 2.250000000000e+01 4.101535035144e-07 -4.682435321834e-09 0.000000000000e+00
7.490000000000e+02 0.000000000000e+00 2.350000000000e+01 1.225131553739e-07 -5.076194780886e-09 0.000000000000e+00
7.500000000000e+02 0.000000000000e+00 2.350000000000e+01 1.226940813943e-07 -5.075344415323e-09 0.000000000000e+00
7.490000000000e+02 0.000000000000e+00 2.450000000000e+01 2.461718253681e-09 -5.168378019003e-09 0.000000000000e+00
7.500000000000e+02 0.000000000000e+00 2.450000000000e+01 2.465354635051e-09 -5.167638440233e-09 0.000000000000e+00
7.490000000000e+02 0.000000000000e+00 2.550000000000e+01 2.701681032011e-07 -5.369866177396e-09 0.000000000000e+00
7.500000000000e+02 0.000000000000e+00 2.550000000000e+01 2.705678786639e-07 -5.369373372527e-09 0.000000000000e+00
7.490000000000e+02 0.000000000000e+00 2.650000000000e+01 1.141642105179e-09 -5.570375017411e-09 0.000000000000e+00
7.500000000000e+02 0.000000000000e+00 2.650000000000e+01 1.143331710285e-09 -5.570127780797e-09 0.000000000000e+00
7.490000000000e+02 0.000000000000e+00 2.750000000000e+01 5.775132642139e-08 -5.613961070400e-09 0.000000000000e+00
7.500000000000e+02 0.000000000000e+00 2.750000000000e+01 5.783690369815e-08 -5.613767944524e-09 0.000000000000e+00
7.490000000000e+02 0.000000000000e+00 2.850000000000e+01 7.498247835180e-08 -5.712196260041e-09 0.000000000000e+00
7.500000000000e+02 0.000000000000e+00 2.850000000000e+01 7.509359141814e-08 -5.712125037433e-09 0.000000000000e+00
7.490000000000e+02 0.000000000000e+00 2.950000000000e+01 1.297424411457e-09 -5.768650090392e-09 0.000000000000e+00
7.500000000000e+02 0.000000000000e+00 2.950000000000e+01 1.299347015423e-09 -5.768648899249e-09 0.000000000000e+00
VARIABLES = "X","Y","Z",VELOCITY1_X,VELOCITY1_Y,VELOCITY1_Z
ZONE T="0.000000000000e+00s", 
7.490000000000e+02 0.000000000000e+00 5.000000000000e-01 0.000000000000e+00 0.000000000000e+00 0.000000000000e+00
7.500000000000e+02 0.000000000000e+00 5.000000000000e-01 0.000000000000e+00 0.000000000000e+00 0.000000000000e+00
7.490000000000e+02 0.000000000000e+00 1.500000000000e+00 0.000000000000e+00 0.000000000000e+00 0.000000000000e+00
7.500000000000e+02 0.000000000000e+00 1.500000000000e+00 0.000000000000e+00 0.000000000000e+00 0.000000000000e+00
7.490000000000e+02 0.000000000000e+00 2.500000000000e+00 0.000000000000e+00 0.000000000000e+00 0.000000000000e+00
7.500000000000e+02 0.000000000000e+00 2.500000000000e+00 0.000000000000e+00 0.000000000000e+00 0.000000000000e+00
7.490000000000e+02 0.000000000000e+00 3.500000000000e+00 0.000000000000e+00 0.000000000000e+00 0.000000000000e+00
7.500000000000e+02 0.000000000000e+00 3.500000000000e+00 0.000000000000e+00 0.000000000000e+00 0.000000000000e+00
7.490000000000e+02 0.000000000000e+00 4.500000000000e+00 0.000000000000e+00 0.000000000000e+00 0.000000000000e+00
7.500000000000e+02 0.000000000000e+00 4.500000000000e+00 0.000000000000e+00 0.000000000000e+00 0.000000000000e+00
7.490000000000e+02 0.000000000000e+00 5.500000000000e+00 0.000000000000e+00 0.000000000000e+00 0.000000000000e+00
7.500000000000e+02 0.000000000000e+00 5.500000000000e+00 0.000000000000e+00 0.000000000000e+00 0.000000000000e+00
7.490000000000e+02 0.000000000000e+00 6.500000000000e+00 0.000000000000e+00 0.000000000000e+00 0.000000000000e+00
7.500000000000e+02 0.000000000000e+00 6.500000000000e+00 0.000000000000e+00 0.000000000000e+00 0.000000000000e+00
7.490000000000e+02 0.000000000000e+00 7.500000000000e+00 0.000000000000e+00 0.000000000000e+00 0.000000000000e+00
7.500000000000e+02 0.000000000000e+00 7.500000000000e+00 0.000000000000e+00 0.000000000000e+00 0.000000000000e+00
7.490000000000e+02 0.000000000000e+00 8.500000000000e+00 0.000000000000e+00 0.000000000000e+00 0.000000000000e+00
7.500000000000e+02 0.000000000000e+00 8.500000000000e+00 0.000000000000e+00 0.000000000000e+00 0.000000000000e+00
7.490000000000e+02 0.000000000000e+00 9.500000000000e+00 0.000000000000e+00 0.000000000000e+00 0.000000000000e+00
7.500000000000e+02 0.000000000000e+00 9.500000000000e+00 0.000000000000e+00 0.000000000000e+00 0.000000000000e+00
7.490000000000e+02 0.000000000000e+00 1.050000000000e+01 0.000000000000e+00 0.000000000000e+00 0.000000000000e+00
7.500000000000e+02 0.000000000000e+00 1.050000000000e+01 0.000000000000e+00 0.000000000000e+00 0.000000000000e+00
7.490000000000e+02 0.000000000000e+00 1.150000000000e+01 0.000000000000e+00 0.000000000000e+00 0.000000000000e+00
7.500000000000e+02 0.000000000000e+00 1.150000000000e+01 0.000000000000e+00 0.000000000000e+00 0.000000000000e+00
7.490000000000e+02 0.000000000000e+00 1.250000000000e+01 0.000000000000e+00 0.000000000000e+00 0.000000000000e+00
7.500000000000e+02 0.000000000000e+00 1.250000000000e+01 0.000000000000e+00 0.000000000000e+00 0.000000000000e+00
7.490000000000e+02 0.000000000000e+00 1.350000000000e+01 0.000000000000e+00 0.000000000000e+00 0.000000000000e+00
7.500000000000e+02 0.000000000000e+00 1.350000000000e+01 0.000000000000e+00 0.000000000000e+00 0.000000000000e+00
7.490000000000e+02 0.000000000000e+00 1.450000000000e+01 0.000000000000e+00 0.000000000000e+00 0.000000000000e+00
7.500000000000e+02 0.000000000000e+00 1.450000000000e+01 0.000000000000e+00 0.000000000000e+00 0.000000000000e+00
7.490000000000e+02 0.000000000000e+00 1.550000000000e+01 0.000000000000e+00 0.000000000000e+00 0.000000000000e+00
7.500000000000e+02 0.000000000000e+00 1.550000000000e+01 0.000000000000e+00 0.000000000000e+00 0.000000000000e+00
7.490000000000e+02 0.000000000000e+00 1.650000000000e+01 0.000000000000e+00 0.000000000000e+00 0.000000000000e+00
7.500000000000e+02 0.000000000000e+00 1.650000000000e+01 0.000000000000e+00 0.000000000000e+00 0.000000000000e+00
7.490000000000e+02 0.000000000000e+00 1.750000000000e+01 0.000000000000e+00 0.000000000000e+00 0.000000000000e+00
7.500000000000e+02 0.000000000000e+00 1.750000000000e+01 0.000000000000e+00 0.000000000000e+00 0.000000000000e+00
7.490000000000e+02 0.000000000000e+00 1.850000000000e+01 0.000000000000e+00 0.000000000000e+00 0.000000000000e+00
7.500000000000e+02 0.000000000000e+00 1.850000000000e+01 0.000000000000e+00 0.000000000000e+00 0.000000000000e+00
7.490000000000e+02 0.000000000000e+00 1.950000000000e+01 0.000000000000e+00 0.000000000000e+00 0.000000000000e+00
7.500000000000e+02 0.000000000000e+00 1.950000000000e+01 0.000000000000e+00 0.000000000000e+00 0.000000000000e+00
7.490000000000e+02 0.000000000000e+00 2.050000000000e+01 0.000000000000e+00 0.000000000000e+00 0.000000000000e+00
7.500000000000e+02 0.000000000000e+00 2.050000000000e+01 0.000000000000e+00 0.000000000000e+00 0.000000000000e+00
7.490000000000e+02 0.000000000000e+00 2.150000000000e+01 0.000000000000e+00 0.000000000000e+00 0.000000000000e+00
7.500000000000e+02 0.000000000000e+00 2.150000000000e+01 0.000000000000e+00 0.000000000000e+00 0.000000000000e+00
7.490000000000e+02 0.000000000000e+00 2.250000000000e+01 0.000000000000e+00 0.000000000000e+00 0.000000000000e+00
7.500000000000e+02 0.000000000000e+00 2.250000000000e+01 0.000000000000e+00 0.000000000000e+00 0.000000000000e+00
7.490000000000e+02 0.000000000000e+00 2.350000000000e+01 0.000000000000e+00 0.000000000000e+00 0.000000000000e+00
7.500000000000e+02 0.000000000000e+00 2.350000000000e+01 0.000000000000e+00 0.000000000000e+00 0.000000000000e+00
7.490000000000e+02 0.000000000000e+00 2.450000000000e+01 0.000000000000e+00 0.000000000000e+00 0.000000000000e+00
7.500000000000e+02 0.000000000000e+00 2.450000000000e+01 0.000000000000e+00 0.000000000000e+00 0.000000000000e+00
7.490000000000e+02 0.000000000000e+00 2.550000000000e+01 0.000000000000e+00 0.000000000000e+00 0.000000000000e+00
7.500000000000e+02 0.000000000000e+00 2.550000000000e+01 0.000000000000e+00 0.000000000000e+00 0.000000000000e+00
7.490000000000e+02 0.000000000000e+00 2.650000000000e+01 0.000000000000e+00 0.000000000000e+00 0.000000000000e+00
7.500000000000e+02 0.000000000000e+00 2.650000000000e+01 0.000000000000e+00 0.000000000000e+00 0.000000000000e+00
7.490000000000e+02 0.000000000000e+00 2.750000000000e+01 0.000000000000e+00 0.000000000000e+00 0.000000000000e+00
7.500000000000e+02 0.000000000000e+00 2.750000000000e+01 0.000000000000e+00 0.000000000000e+00 0.000000000000e+00
7.490000000000e+02 0.000000000000e+00 2.850000000000e+01 0.000000000000e+00 0.000000000000e+00 0.000000000000e+00
7.500000000000e+02 0.000000000000e+00 2.850000000000e+01 0.000000000000e+00 0.000000000000e+00 0.000000000000e+00
7.490000000000e+02 0.000000000000e+00 2.950000000000e+01 0.000000000000e+00 0.000000000000e+00 0.000000000000e+00
7.500000000000e+02 0.000000000000e+00 2.950000000000e+01 0.000000000000e+00 0.000000000000e+00 0.000000000000e+00
VARIABLES = "X","Y","Z",VELOCITY1_X,VELOCITY1_Y,VELOCITY1_Z
ZONE T="8.640000000000e+04s", 
7.490000000000e+02 0.000000000000e+00 5.000000000000e-01 1.113116979613e-06 -6.886627505768e-10 0.000000000000e+00
7.500000000000e+02 0.000000000000e+00 5.000000000000e-01 1.114497496677e-06 -6.880126063412e-10 0.000000000000e+00
7.490000000000e+02 0.000000000000e+00 1.500000000000e+00 2.130541490322e-08 -1.388366349828e-09 0.000000000000e+00
7.500000000000e+02 0.000000000000e+00 1.500000000000e+00 2.133183998811e-08 -1.387055657213e-09 0.000000000000e+00
7.490000000000e+02 0.000000000000e+00 2.500000000000e+00 3.264951891519e-09 -1.399200496142e-09 0.000000000000e+00
7.500000000000e+02 0.000000000000e+00 2.500000000000e+00 3.269004596000e-09 -1.397876668286e-09 0.000000000000e+00
7.490000000000e+02 0.000000000000e+00 3.500000000000e+00 5.011072686132e-08 -1.427797387121e-09 0.000000000000e+00
7.500000000000e+02 0.000000000000e+00 3.500000000000e+00 5.017310492300e-08 -1.426444910129e-09 0.000000000000e+00
7.490000000000e+02 0.000000000000e+00 4.500000000000e+00 1.222993696262e-08 -1.461884833648e-09 0.000000000000e+00
7.500000000000e+02 0.000000000000e+00 4.500000000000e+00 1.224516520705e-08 -1.460498865925e-09 0.000000000000e+00
7.490000000000e+02 0.000000000000e+00 5.500000000000e+00 8.256416412793e-07 -1.979479678005e-09 0.000000000000e+00
7.500000000000e+02 0.000000000000e+00 5.500000000000e+00 8.266705064797e-07 -1.977635144136e-09 0.000000000000e+00
7.490000000000e+02 0.000000000000e+00 6.500000000000e+00 2.611171535405e-09 -2.490862829551e-09 0.000000000000e+00
7.500000000000e+02 0.000000000000e+00 6.500000000000e+00 2.614427990217e-09 -2.488566056478e-09 0.000000000000e+00
7.490000000000e+02 0.000000000000e+00 7.500000000000e+00 6.684637306841e-10 -2.486207592487e-09 0.000000000000e+00
7.500000000000e+02 0.000000000000e+00 7.500000000000e+00 6.693049760889e-10 -2.483910202926e-09 0.000000000000e+00
7.490000000000e+02 0.000000000000e+00 8.500000000000e+00 1.833879156316e-08 -2.487954264442e-09 0.000000000000e+00
7.500000000000e+02 0.000000000000e+00 8.500000000000e+00 1.836241454649e-08 -2.485652270863e-09 0.000000000000e+00
7.490000000000e+02 0.000000000000e+00 9.500000000000e+00 6.477505623203e-07 -2.905931546304e-09 0.000000000000e+00
7.500000000000e+02 0.000000000000e+00 9.500000000000e+00 6.485856585469e-07 -2.903440468776e-09 0.000000000000e+00
7.490000000000e+02 0.000000000000e+00 1.050000000000e+01 3.802979450929e-08 -3.336529790336e-09 0.000000000000e+00
7.500000000000e+02 0.000000000000e+00 1.050000000000e+01 3.807882768491e-08 -3.333844804123e-09 0.000000000000e+00
7.490000000000e+02 0.000000000000e+00 1.150000000000e+01 1.967568479321e-08 -3.361940612621e-09 0.000000000000e+00
7.500000000000e+02 0.000000000000e+00 1.150000000000e+01 1.970106834874e-08 -3.359240408755e-09 0.000000000000e+00
7.490000000000e+02 0.000000000000e+00 1.250000000000e+01 1.522371218681e-10 -3.351479253777e-09 0.000000000000e+00
7.500000000000e+02 0.000000000000e+00 1.250000000000e+01 1.524366745371e-10 -3.348774629341e-09 0.000000000000e+00
7.490000000000e+02 0.000000000000e+00 1.350000000000e+01 4.787501379919e-07 -3.633234265980e-09 0.000000000000e+00
7.500000000000e+02 0.000000000000e+00 1.350000000000e+01 4.794499630883e-07 -3.630908764440e-09 0.000000000000e+00
7.490000000000e+02 0.000000000000e+00 1.450000000000e+01 1.784191642860e-08 -3.916515321954e-09 0.000000000000e+00
7.500000000000e+02 0.000000000000e+00 1.450000000000e+01 1.786800013441e-08 -3.914582673762e-09 0.000000000000e+00
7.490000000000e+02 0.000000000000e+00 1.550000000000e+01 9.341981785761e-09 -3.855537498074e-09 0.000000000000e+00
7.500000000000e+02 0.000000000000e+00 1.550000000000e+01 9.355649869762e-09 -3.853627574430e-09 0.000000000000e+00
7.490000000000e+02 0.000000000000e+00 1.650000000000e+01 3.802220176251e-08 -3.806621553507e-09 0.000000000000e+00
7.500000000000e+02 0.000000000000e+00 1.650000000000e+01 3.807789974804e-08 -3.804751003192e-09 0.000000000000e+00
7.490000000000e+02 0.000000000000e+00 1.750000000000e+01 1.430448290805e-08 -3.759484867541e-09 0.000000000000e+00
7.500000000000e+02 0.000000000000e+00 1.750000000000e+01 1.432544524477e-08 -3.757657837619e-09 0.000000000000e+00
7.490000000000e+02 0.000000000000e+00 1.850000000000e+01 2.751151791671e-09 -3.680575978569e-09 0.000000000000e+00
7.500000000000e+02 0.000000000000e+00 1.850000000000e+01 2.755188387074e-09 -3.678763979089e-09 0.000000000000e+00
7.490000000000e+02 0.000000000000e+00 1.950000000000e+01 9.420464106556e-09 -3.582324109075e-09 0.000000000000e+00
7.500000000000e+02 0.000000000000e+00 1.950000000000e+01 9.434340875784e-09 -3.580523624159e-09 0.000000000000e+00
7.490000000000e+02 0.000000000000e+00 2.050000000000e+01 1.246418919374e-08 -3.481829790037e-09 0.000000000000e+00
7.500000000000e+02 0.000000000000e+00 2.050000000000e+01 1.248257164951e-08 -3.480049420392e-09 0.000000000000e+00
7.490000000000e+02 0.000000000000e+00 2.150000000000e+01 4.859795937680e-08 -3.404447215641e-09 0.000000000000e+00
7.500000000000e+02 0.000000000000e+00 2.150000000000e+01 4.866969340094e-08 -3.402721562339e-09 0.000000000000e+00
7.490000000000e+02 0.000000000000e+00 2.250000000000e+01 4.095441119786e-07 -3.617518293445e-09 0.000000000000e+00
7.500000000000e+02 0.000000000000e+00 2.250000000000e+01 4.101487525896e-07 -3.616197018420e-09 0.000000000000e+00
7.490000000000e+02 0.000000000000e+00 2.350000000000e+01 1.225117825338e-07 -3.884462609479e-09 0.000000000000e+00
7.500000000000e+02 0.000000000000e+00 2.350000000000e+01 1.226926601191e-07 -3.883611220159e-09 0.000000000000e+00
7.490000000000e+02 0.000000000000e+00 2.450000000000e+01 2.461690754096e-09 -3.841803465389e-09 0.000000000000e+00
7.500000000000e+02 0.000000000000e+00 2.450000000000e+01 2.465326173729e-09 -3.841063287883e-09 0.000000000000e+00
7.490000000000e+02 0.000000000000e+00 2.550000000000e+01 2.701651434474e-07 -3.873204847483e-09 0.000000000000e+00
7.500000000000e+02 0.000000000000e+00 2.550000000000e+01 2.705648219200e-07 -3.872710883349e-09 0.000000000000e+00
7.490000000000e+02 0.000000000000e+00 2.650000000000e+01 1.141629795592e-09 -3.870357865746e-09 0.000000000000e+00
7.500000000000e+02 0.000000000000e+00 2.650000000000e+01 1.143319003308e-09 -3.870108906946e-09 0.000000000000e+00
7.490000000000e+02 0.000000000000e+00 2.750000000000e+01 5.775078072346e-08 -3.613321529432e-09 0.000000000000e+00
7.500000000000e+02 0.000000000000e+00 2.750000000000e+01 5.783634260570e-08 -3.613127317693e-09 0.000000000000e+00
7.490000000000e+02 0.000000000000e+00 2.850000000000e+01 7.498177118745e-08 -3.384003213710e-09 0.000000000000e+00
7.500000000000e+02 0.000000000000e+00 2.850000000000e+01 7.509286432047e-08 -3.383931062181e-09 0.000000000000e+00
7.490000000000e+02 0.000000000000e+00 2.950000000000e+01 1.297412239217e-09 -3.076656509348e-09 0.000000000000e+00
7.500000000000e+02 0.000000000000e+00 2.950000000000e+01 1.299334501705e-09 -3.076654874743e-09 0.000000000000e+00
VARIABLES = "X","Y","Z",VELOCITY1_X,VELOCITY1_Y,VELOCITY1_Z
ZONE T="1.728000000000e+05s", 
7.490000000000e+02 0.000000000000e+00 5.000000000000e-01 1.113067146204e-06 -6.871132966077e-10 0.000000000000e+00
7.500000000000e+02 0.000000000000e+00 5.000000000000e-01 1.114446847703e-06 -6.864585071423e-10 0.000000000000e+00
7.490000000000e+02 0.000000000000e+00 1.500000000000e+00 2.130446220831e-08 -1.384275849022e-09 0.000000000000e+00
7.500000000000e+02 0.000000000000e+00 1.500000000000e+00 2.133087169360e-08 -1.382955860646e-09 0.000000000000e+00
7.490000000000e+02 0.000000000000e+00 2.500000000000e+00 3.264807890499e-09 -1.392738429843e-09 0.000000000000e+00
7.500000000000e+02 0.000000000000e+00 2.500000000000e+00 3.268858225171e-09 -1.391408224747e-09 0.000000000000e+00
7.490000000000e+02 0.000000000000e+00 3.500000000000e+00 5.010860466331e-08 -1.419047918790e-09 0.000000000000e+00
7.500000000000e+02 0.000000000000e+00 3.500000000000e+00 5.017094717380e-08 -1.417691758752e-09 0.000000000000e+00
7.490000000000e+02 0.000000000000e+00 4.500000000000e+00 1.222941996587e-08 -1.450898946282e-09 0.000000000000e+00
7.500000000000e+02 0.000000000000e+00 4.500000000000e+00 1.224463953690e-08 -1.449511852648e-09 0.000000000000e+00
7.490000000000e+02 0.000000000000e+00 5.500000000000e+00 8.256068102887e-07 -1.966064560851e-09 0.000000000000e+00
7.500000000000e+02 0.000000000000e+00 5.500000000000e+00 8.266350889049e-07 -1.964217158628e-09 0.000000000000e+00
7.490000000000e+02 0.000000000000e+00 6.500000000000e+00 2.611062007695e-09 -2.475265263845e-09 0.000000000000e+00
7.500000000000e+02 0.000000000000e+00 6.500000000000e+00 2.614316611101e-09 -2.472963078975e-09 0.000000000000e+00
7.490000000000e+02 0.000000000000e+00 7.500000000000e+00 6.684372502356e-10 -2.469399078455e-09 0.000000000000e+00
7.500000000000e+02 0.000000000000e+00 7.500000000000e+00 6.692780280847e-10 -2.467099036477e-09 0.000000000000e+00
7.490000000000e+02 0.000000000000e+00 8.500000000000e+00 1.833813173524e-08 -2.472010390367e-09 0.000000000000e+00