VARIABLES = "Time","Value"
ZONE T=obs_00250
0.000000000000e+00 0.000000000000e+00
8.640000000000e+04 1.439412202724e-06
1.728000000000e+05 1.439417665033e-06
2.592000000000e+05 1.439422164933e-06
3.456000000000e+05 1.439425999366e-06
4.320000000000e+05 1.439429129439e-06
5.184000000000e+05 1.439431569117e-06
6.048000000000e+05 1.439433506127e-06
6.912000000000e+05 1.439433941337e-06
7.776000000000e+05 1.439433139223e-06
8.640000000000e+05 1.439430047158e-06
9.504000000000e+05 1.439423900793e-06
1.036800000000e+06 1.439413100722e-06
1.123200000000e+06 1.439397114418e-06
1.209600000000e+06 1.439376023119e-06
1.296000000000e+06 1.439347698352e-06
1.382400000000e+06 1.439311964044e-06
1.468800000000e+06 1.439268525736e-06
1.555200000000e+06 1.439217088505e-06
1.641600000000e+06 1.439158231887e-06
1.728000000000e+06 1.439091782126e-06
1.814400000000e+06 1.439018916417e-06
1.900800000000e+06 1.438937429313e-06
1.987200000000e+06 1.438848025482e-06
2.073600000000e+06 1.438750880951e-06
2.160000000000e+06 1.438646327718e-06
2.246400000000e+06 1.438534604950e-06
2.332800000000e+06 1.438416418902e-06
2.419200000000e+06 1.438292392587e-06
2.505600000000e+06 1.438164330974e-06
2.592000000000e+06 1.438032847742e-06
2.678400000000e+06 1.437899672523e-06
2.764800000000e+06 1.437766398091e-06
2.851200000000e+06 1.437634633668e-06
2.937600000000e+06 1.437506872614e-06
3.024000000000e+06 1.437384159968e-06
3.110400000000e+06 1.437270355833e-06
3.196800000000e+06 1.437165466937e-06
3.283200000000e+06 1.437072718443e-06
3.369600000000e+06 1.436993605228e-06
3.456000000000e+06 1.436928965845e-06
3.542400000000e+06 1.436879724698e-06
3.628800000000e+06 1.436847367450e-06
3.715200000000e+06 1.436830424797e-06
3.801600000000e+06 1.436828349235e-06
3.888000000000e+06 1.436842255313e-06
3.974400000000e+06 1.436870085427e-06
4.060800000000e+06 1.436912333137e-06
4.147200000000e+06 1.436965304846e-06
4.233600000000e+06 1.437028782644e-06
4.320000000000e+06 1.437101196312e-06
4.406400000000e+06 1.437179950744e-06
4.492800000000e+06 1.437263823637e-06
4.579200000000e+06 1.437350971142e-06
4.665600000000e+06 1.437439759387e-06
4.752000000000e+06 1.437528517783e-06
4.838400000000e+06 1.437617271247e-06
4.924800000000e+06 1.437705098447e-06
5.011200000000e+06 1.437791704439e-06
5.097600000000e+06 1.437877704976e-06
5.184000000000e+06 1.437962831102e-06
5.270400000000e+06 1.438048607769e-06
5.356800000000e+06 1.438135126669e-06
5.443200000000e+06 1.438223083539e-06
5.529600000000e+06 1.438313432197e-06
5.616000000000e+06 1.438406979836e-06
5.702400000000e+06 1.438504839552e-06
5.788800000000e+06 1.438607751939e-06
5.875200000000e+06 1.438716734927e-06
5.961600000000e+06 1.438832156290e-06
6.048000000000e+06 1.438955703985e-06
6.134400000000e+06 1.439087648890e-06
6.220800000000e+06 1.439228614479e-06
6.307200000000e+06 1.439378969332e-06
