VARIABLES = "Time","Value"
ZONE T=obs_00750
0.000000000000e+00 0.000000000000e+00
8.640000000000e+04 4.324263056382e-06
1.728000000000e+05 4.324094980739e-06
2.592000000000e+05 4.323776153009e-06
3.456000000000e+05 4.323257858045e-06
4.320000000000e+05 4.322419481782e-06
5.184000000000e+05 4.321082013145e-06
6.048000000000e+05 4.319109391438e-06
6.912000000000e+05 4.316565185812e-06
7.776000000000e+05 4.313702746499e-06
8.640000000000e+05 4.310968445210e-06
9.504000000000e+05 4.308611770084e-06
1.036800000000e+06 4.306650781761e-06
1.123200000000e+06 4.304911325350e-06
1.209600000000e+06 4.303387954426e-06
1.296000000000e+06 4.302066271406e-06
1.382400000000e+06 4.300893241031e-06
1.468800000000e+06 4.299750205665e-06
1.555200000000e+06 4.298417231300e-06
1.641600000000e+06 4.296889870391e-06
1.728000000000e+06 4.295316680723e-06
1.814400000000e+06 4.293834051715e-06
1.900800000000e+06 4.292674392824e-06
1.987200000000e+06 4.292067614989e-06
2.073600000000e+06 4.292085228845e-06
2.160000000000e+06 4.292656855030e-06
2.246400000000e+06 4.293728443602e-06
2.332800000000e+06 4.295275432266e-06
2.419200000000e+06 4.297351059471e-06
2.505600000000e+06 4.300005129055e-06
2.592000000000e+06 4.303288160743e-06
2.678400000000e+06 4.307227780663e-06
2.764800000000e+06 4.311740612512e-06
2.851200000000e+06 4.316592104466e-06
2.937600000000e+06 4.321561813271e-06
3.024000000000e+06 4.326367366691e-06
3.110400000000e+06 4.330645562138e-06
3.196800000000e+06 4.334220804642e-06
3.283200000000e+06 4.337104944196e-06
3.369600000000e+06 4.339487579909e-06
3.456000000000e+06 4.341435517956e-06
3.542400000000e+06 4.342900179599e-06
3.628800000000e+06 4.343718775764e-06
3.715200000000e+06 4.343956194665e-06
3.801600000000e+06 4.343777979018e-06
3.888000000000e+06 4.343212086312e-06
3.974400000000e+06 4.342117195715e-06
4.060800000000e+06 4.340347738677e-06
4.147200000000e+06 4.338015704893e-06
4.233600000000e+06 4.335384539473e-06
4.320000000000e+06 4.332832898559e-06
4.406400000000e+06 4.330660389608e-06
4.492800000000e+06 4.329122355421e-06
4.579200000000e+06 4.328324248687e-06
4.665600000000e+06 4.328279866256e-06
4.752000000000e+06 4.328989810562e-06
4.838400000000e+06 4.330257264959e-06
4.924800000000e+06 4.331832996513e-06
5.011200000000e+06 4.333562990794e-06
5.097600000000e+06 4.335411706179e-06
5.184000000000e+06 4.337475742064e-06
5.270400000000e+06 4.339770721266e-06
5.356800000000e+06 4.342315419933e-06
5.443200000000e+06 4.345042700178e-06
5.529600000000e+06 4.347844638437e-06
5.616000000000e+06 4.350718515740e-06
5.702400000000e+06 4.353681019033e-06
5.788800000000e+06 4.356768322318e-06
5.875200000000e+06 4.359863265188e-06
5.961600000000e+06 4.362635803746e-06
6.048000000000e+06 4.364649870247e-06
6.134400000000e+06 4.365579080489e-06
6.220800000000e+06 4.365409795524e-06
6.307200000000e+06 4.364487451602e-06
