 TITLE = "Profiles along polylines"
 VARIABLES = "DIST" "HEAD" "VELOCITY_X1" "VELOCITY_Y1" "VELOCITY_Z1" 
 ZONE T="TIME=0.000000000000e+00"
0.000000000000e+00 3.054174913945e+01 0.000000000000e+00 0.000000000000e+00 0.000000000000e+00 
1.000000000000e+00 3.054174969214e+01 0.000000000000e+00 0.000000000000e+00 0.000000000000e+00 
2.000000000000e+00 3.054180800600e+01 0.000000000000e+00 0.000000000000e+00 0.000000000000e+00 
3.000000000000e+00 3.054219273195e+01 0.000000000000e+00 0.000000000000e+00 0.000000000000e+00 
4.000000000000e+00 3.054221839649e+01 0.000000000000e+00 0.000000000000e+00 0.000000000000e+00 
5.000000000000e+00 3.054232637585e+01 0.000000000000e+00 0.000000000000e+00 0.000000000000e+00 
6.000000000000e+00 3.054232853635e+01 0.000000000000e+00 0.000000000000e+00 0.000000000000e+00 
7.000000000000e+00 3.054318713146e+01 0.000000000000e+00 0.000000000000e+00 0.000000000000e+00 
8.000000000000e+00 3.054654762792e+01 0.000000000000e+00 0.000000000000e+00 0.000000000000e+00 
9.000000000000e+00 3.054667106848e+01 0.000000000000e+00 0.000000000000e+00 0.000000000000e+00 
1.000000000000e+01 3.054667513202e+01 0.000000000000e+00 0.000000000000e+00 0.000000000000e+00 
1.100000000000e+01 3.054675431530e+01 0.000000000000e+00 0.000000000000e+00 0.000000000000e+00 
1.200000000000e+01 3.054690899670e+01 0.000000000000e+00 0.000000000000e+00 0.000000000000e+00 
1.300000000000e+01 3.056701523013e+01 0.000000000000e+00 0.000000000000e+00 0.000000000000e+00 
1.400000000000e+01 3.056702227728e+01 0.000000000000e+00 0.000000000000e+00 0.000000000000e+00 
1.500000000000e+01 3.056722676226e+01 0.000000000000e+00 0.000000000000e+00 0.000000000000e+00 
1.600000000000e+01 3.056761895603e+01 0.000000000000e+00 0.000000000000e+00 0.000000000000e+00 
1.700000000000e+01 3.056771602387e+01 0.000000000000e+00 0.000000000000e+00 0.000000000000e+00 
1.800000000000e+01 3.056797607339e+01 0.000000000000e+00 0.000000000000e+00 0.000000000000e+00 
1.900000000000e+01 3.056933186942e+01 0.000000000000e+00 0.000000000000e+00 0.000000000000e+00 
2.000000000000e+01 3.056972876993e+01 0.000000000000e+00 0.000000000000e+00 0.000000000000e+00 
2.100000000000e+01 3.057002977457e+01 0.000000000000e+00 0.000000000000e+00 0.000000000000e+00 
2.200000000000e+01 3.057010767955e+01 0.000000000000e+00 0.000000000000e+00 0.000000000000e+00 
2.300000000000e+01 3.057011754268e+01 0.000000000000e+00 0.000000000000e+00 0.000000000000e+00 
2.400000000000e+01 3.057015291496e+01 0.000000000000e+00 0.000000000000e+00 0.000000000000e+00 
2.500000000000e+01 3.057194143570e+01 0.000000000000e+00 0.000000000000e+00 0.000000000000e+00 
2.600000000000e+01 3.057195829447e+01 0.000000000000e+00 0.000000000000e+00 0.000000000000e+00 
2.700000000000e+01 3.057607938405e+01 0.000000000000e+00 0.000000000000e+00 0.000000000000e+00 
2.800000000000e+01 3.057616143010e+01 0.000000000000e+00 0.000000000000e+00 0.000000000000e+00 
2.900000000000e+01 3.057622560048e+01 0.000000000000e+00 0.000000000000e+00 0.000000000000e+00 
3.000000000000e+01 3.057996672614e+01 0.000000000000e+00 0.000000000000e+00 0.000000000000e+00 
 TITLE = "Profiles along polylines"
 VARIABLES = "DIST" "HEAD" "VELOCITY_X1" "VELOCITY_Y1" "VELOCITY_Z1" 
 ZONE T="TIME=8.640000000000e+04"
0.000000000000e+00 3.054171177901e+01 7.496274800378e-10 -7.475018941670e-10 0.000000000000e+00 
1.000000000000e+00 3.054171233012e+01 3.820156021190e-10 -1.127253872900e-09 0.000000000000e+00 
2.000000000000e+00 3.054177037970e+01 8.274134633745e-12 -1.513074728685e-09 0.000000000000e+00 
3.000000000000e+00 3.054215227087e+01 1.796499043911e-11 -1.534792457494e-09 0.000000000000e+00 
4.000000000000e+00 3.054217767472e+01 2.098282931457e-11 -1.569052811262e-09 0.000000000000e+00 
5.000000000000e+00 3.054228426690e+01 2.819635109275e-10 -1.867215025909e-09 0.000000000000e+00 
6.000000000000e+00 3.054228640204e+01 2.787440112073e-10 -2.422912795234e-09 0.000000000000e+00 
7.000000000000e+00 3.054313530012e+01 1.103397201495e-12 -2.696811650811e-09 0.000000000000e+00 
8.000000000000e+00 3.054644962781e+01 6.369688821454e-12 -2.695686285536e-09 0.000000000000e+00 
9.000000000000e+00 3.054657090838e+01 2.231702686665e-10 -2.914207847956e-09 0.000000000000e+00 
1.000000000000e+01 3.054657489605e+01 2.297752776587e-10 -3.355536459146e-09 0.000000000000e+00 
1.100000000000e+01 3.054665253139e+01 1.933401616559e-11 -3.592888781614e-09 0.000000000000e+00 
1.200000000000e+01 3.054680372464e+01 6.642778690428e-12 -3.601318827205e-09 0.000000000000e+00 
1.300000000000e+01 3.056633181413e+01 1.576327326205e-10 -3.719982975401e-09 0.000000000000e+00 
1.400000000000e+01 3.056633855537e+01 1.634545582004e-10 -3.967414296657e-09 0.000000000000e+00 
1.500000000000e+01 3.056653109536e+01 8.947143873341e-12 -4.059702740016e-09 0.000000000000e+00 
1.600000000000e+01 3.056689320355e+01 1.558561574908e-11 -4.002003544585e-09 0.000000000000e+00 
1.700000000000e+01 3.056698103133e+01 1.721774713474e-11 -3.950277872150e-09 0.000000000000e+00 
1.800000000000e+01 3.056721150023e+01 5.611699067689e-12 -3.884662833769e-09 0.000000000000e+00 
1.900000000000e+01 3.056838554415e+01 4.002428225622e-12 -3.794947430301e-09 0.000000000000e+00 
2.000000000000e+01 3.056871976476e+01 7.195322494653e-12 -3.694209173113e-09 0.000000000000e+00 
2.100000000000e+01 3.056896551878e+01 2.007527808385e-11 -3.601946120922e-09 0.000000000000e+00 
2.200000000000e+01 3.056902713325e+01 1.506452991629e-10 -3.649064663521e-09 0.000000000000e+00 
2.300000000000e+01 3.056903480732e+01 1.749910623977e-10 -3.849417360477e-09 0.000000000000e+00 
2.400000000000e+01 3.056906199993e+01 4.111351278043e-11 -3.935124156531e-09 0.000000000000e+00 
2.500000000000e+01 3.057039732705e+01 8.957668421083e-11 -3.913278179406e-09 0.000000000000e+00 
2.600000000000e+01 3.057040952582e+01 8.914083475126e-11 -3.905297350345e-09 0.000000000000e+00 
2.700000000000e+01 3.057327796678e+01 1.934506395630e-11 -3.761800440273e-09 0.000000000000e+00 
2.800000000000e+01 3.057333086535e+01 4.360194265732e-11 -3.510651875772e-09 0.000000000000e+00 
2.900000000000e+01 3.057336891079e+01 2.505947540725e-11 -3.233625423677e-09 0.000000000000e+00 
3.000000000000e+01 3.057536424524e+01 8.523903050135e-13 -3.076774861730e-09 0.000000000000e+00 
 ZONE T="TIME=1.728000000000e+05"
0.000000000000e+00 3.054165201721e+01 7.496885868972e-10 -7.461886467039e-10 0.000000000000e+00 
1.000000000000e+00 3.054165256736e+01 3.819871698228e-10 -1.124828713560e-09 0.000000000000e+00 
2.000000000000e+00 3.054171048068e+01 8.272969883894e-12 -1.508265375923e-09 0.000000000000e+00 
3.000000000000e+00 3.054209084302e+01 1.796623100944e-11 -1.527486149432e-09 0.000000000000e+00 
4.000000000000e+00 3.054211610709e+01 2.098204364025e-11 -1.559328076726e-09 0.000000000000e+00 
5.000000000000e+00 3.054222196623e+01 2.819826017133e-10 -1.855117712410e-09 0.000000000000e+00 
6.000000000000e+00 3.054222408817e+01 2.787247615884e-10 -2.408635480819e-09 0.000000000000e+00 
7.000000000000e+00 3.054306818091e+01 1.103271984589e-12 -2.680849663355e-09 0.000000000000e+00 
8.000000000000e+00 3.054636203456e+01 6.369910671956e-12 -2.679409416150e-09 0.000000000000e+00 
9.000000000000e+00 3.054648259971e+01 2.231796244510e-10 -2.898972430399e-09 0.000000000000e+00 
1.000000000000e+01 3.054648656884e+01 2.297685629912e-10 -3.341726359707e-09 0.000000000000e+00 
1.100000000000e+01 3.054656392097e+01 1.933321835657e-11 -3.580614445606e-09 0.000000000000e+00 
1.200000000000e+01 3.054671463246e+01 6.642587145082e-12 -3.596398465728e-09 0.000000000000e+00 
1.300000000000e+01 3.056625168328e+01 1.576330957350e-10 -3.750887835695e-09 0.000000000000e+00 
1.400000000000e+01 3.056625853002e+01 1.634557559644e-10 -4.062678392312e-09 0.000000000000e+00 
1.500000000000e+01 3.056645720544e+01 8.947216807684e-12 -4.226345623566e-09 0.000000000000e+00 
1.600000000000e+01 3.056683755443e+01 1.558566306008e-11 -4.243382282807e-09 0.000000000000e+00 
1.700000000000e+01 3.056693156407e+01 1.721776071059e-11 -4.270130247565e-09 0.000000000000e+00 
1.800000000000e+01 3.056718316482e+01 5.611639481389e-12 -4.289723427139e-09 0.000000000000e+00 
1.900000000000e+01 3.056849470726e+01 4.002143482665e-12 -4.304300049856e-09 0.000000000000e+00 
2.000000000000e+01 3.056887965422e+01 7.193988151719e-12 -4.330197946052e-09 0.000000000000e+00 
2.100000000000e+01 3.056917286670e+01 2.006814869980e-11 -4.378364733205e-09 0.000000000000e+00 
2.200000000000e+01 3.056924917718e+01 1.505526309430e-10 -4.573394992309e-09 0.000000000000e+00 
2.300000000000e+01 3.056925890328e+01 1.748315017547e-10 -4.924571560172e-09 0.000000000000e+00 
2.400000000000e+01 3.056929399628e+01 4.106322855402e-11 -5.171254110838e-09 0.000000000000e+00 
2.500000000000e+01 3.057108071583e+01 8.957206251524e-11 -5.354852983016e-09 0.000000000000e+00 
2.600000000000e+01 3.057109777766e+01 8.913932950231e-11 -5.621885840577e-09 0.000000000000e+00 
2.700000000000e+01 3.057534513385e+01 1.934515505664e-11 -5.890113056281e-09 0.000000000000e+00 
2.800000000000e+01 3.057543278446e+01 4.360029067504e-11 -6.181344922704e-09 0.000000000000e+00 
2.900000000000e+01 3.057550400099e+01 2.505646862505e-11 -6.517452836490e-09 0.000000000000e+00 
3.000000000000e+01 3.057984148760e+01 8.523587011529e-13 -6.688337254929e-09 0.000000000000e+00 
 ZONE T="TIME=2.592000000000e+05"
0.000000000000e+00 3.054157025861e+01 7.496390474698e-10 -7.449349741860e-10 0.000000000000e+00 
1.000000000000e+00 3.054157080784e+01 3.820145158352e-10 -1.122142380241e-09 0.000000000000e+00 
2.000000000000e+00 3.054162856250e+01 8.274045916110e-12 -1.502866272814e-09 0.000000000000e+00 
3.000000000000e+00 3.054200724578e+01 1.796524293144e-11 -1.519525329360e-09 0.000000000000e+00 
4.000000000000e+00 3.054203235841e+01 2.098285875482e-11 -1.548795095048e-09 0.000000000000e+00 
5.000000000000e+00 3.054213742374e+01 2.819674329132e-10 -1.842012916324e-09 0.000000000000e+00 
6.000000000000e+00 3.054213953137e+01 2.787433713643e-10 -2.392852742905e-09 0.000000000000e+00 
7.000000000000e+00 3.054297822091e+01 1.103388770652e-12 -2.662315225687e-09 0.000000000000e+00 
8.000000000000e+00 3.054624761042e+01 6.369750826785e-12 -2.658002488090e-09 0.000000000000e+00 
9.000000000000e+00 3.054636714462e+01 2.231723591957e-10 -2.874480126059e-09 0.000000000000e+00 
1.000000000000e+01 3.054637108056e+01 2.297746314448e-10 -3.314049347603e-09 0.000000000000e+00 
1.100000000000e+01 3.054644779734e+01 1.933390666590e-11 -3.549720036975e-09 0.000000000000e+00 
1.200000000000e+01 3.054659714649e+01 6.642773316916e-12 -3.560079392435e-09 0.000000000000e+00 
1.300000000000e+01 3.056591621962e+01 1.576351510426e-10 -3.698155687663e-09 0.000000000000e+00 
1.400000000000e+01 3.056592295180e+01 1.634554343366e-10 -3.982476564364e-09 0.000000000000e+00 
1.500000000000e+01 3.056611715243e+01 8.947182501448e-12 -4.115677580410e-09 0.000000000000e+00 
1.600000000000e+01 3.056648615212e+01 1.558582210626e-11 -4.100205185320e-09 0.000000000000e+00 
1.700000000000e+01 3.056657662503e+01 1.721784278480e-11 -4.092131462262e-09 0.000000000000e+00 
1.800000000000e+01 3.056681672237e+01 5.611683157447e-12 -4.072546598693e-09 0.000000000000e+00 
1.900000000000e+01 3.056805544541e+01 4.002354452832e-12 -4.035387720191e-09 0.000000000000e+00 
2.000000000000e+01 3.056841367781e+01 7.194814282289e-12 -3.994658823111e-09 0.000000000000e+00 
2.100000000000e+01 3.056868181558e+01 2.007241780081e-11 -3.966724728129e-09 0.000000000000e+00 
2.200000000000e+01 3.056875031231e+01 1.506069848813e-10 -4.080351438531e-09 0.000000000000e+00 
2.300000000000e+01 3.056875894086e+01 1.749218294513e-10 -4.348039179494e-09 0.000000000000e+00 
2.400000000000e+01 3.056878978802e+01 4.109123375516e-11 -4.503479194626e-09 0.000000000000e+00 
2.500000000000e+01 3.057033156059e+01 8.957528518583e-11 -4.561593178252e-09 0.000000000000e+00 
2.600000000000e+01 3.057034591503e+01 8.913959301823e-11 -4.648147145338e-09 0.000000000000e+00 
2.700000000000e+01 3.057379896208e+01 1.934540994961e-11 -4.623468940331e-09 0.000000000000e+00 
2.800000000000e+01 3.057386540959e+01 4.360052406926e-11 -4.513690926407e-09 0.000000000000e+00 
2.900000000000e+01 3.057391553037e+01 2.505626028974e-11 -4.385006258182e-09 0.000000000000e+00 
3.000000000000e+01 3.057670636517e+01 8.523475558098e-13 -4.303424094360e-09 0.000000000000e+00 
 ZONE T="TIME=3.456000000000e+05"
0.000000000000e+00 3.054145671782e+01 7.496359628386e-10 -7.430984237544e-10 0.000000000000e+00 
1.000000000000e+00 3.054145726569e+01 3.820173970314e-10 -1.118453474343e-09 0.000000000000e+00 
2.000000000000e+00 3.054151480690e+01 8.274152583755e-12 -1.495476538923e-09 0.000000000000e+00 
3.000000000000e+00 3.054189116783e+01 1.796530852414e-11 -1.508413101508e-09 0.000000000000e+00 
4.000000000000e+00 3.054191606768e+01 2.098288869731e-11 -1.533923243698e-09 0.000000000000e+00 
5.000000000000e+00 3.054202000795e+01 2.819685929173e-10 -1.823357393999e-09 0.000000000000e+00 
6.000000000000e+00 3.054202209514e+01 2.787445119701e-10 -2.370375895162e-09 0.000000000000e+00 
7.000000000000e+00 3.054285311045e+01 1.103410880851e-12 -2.635799167143e-09 0.000000000000e+00 
8.000000000000e+00 3.054608728243e+01 6.370517699563e-12 -2.626814087293e-09 0.000000000000e+00 
9.000000000000e+00 3.054620529906e+01 2.232160522359e-10 -2.838100806854e-09 0.000000000000e+00 
1.000000000000e+01 3.054620918533e+01 2.298235749784e-10 -3.272353393729e-09 0.000000000000e+00 
1.100000000000e+01 3.054628493959e+01 1.933878333353e-11 -3.502632739166e-09 0.000000000000e+00 
1.200000000000e+01 3.054643220103e+01 6.643595279597e-12 -3.506659910428e-09 0.000000000000e+00 
1.300000000000e+01 3.056544153320e+01 1.576349706096e-10 -3.633942762523e-09 0.000000000000e+00 
1.400000000000e+01 3.056544814018e+01 1.634577160442e-10 -3.903033243923e-09 0.000000000000e+00 
1.500000000000e+01 3.056563822273e+01 8.947325151825e-12 -4.020153437248e-09 0.000000000000e+00 
1.600000000000e+01 3.056599791445e+01 1.558589097848e-11 -3.988730525040e-09 0.000000000000e+00 
1.700000000000e+01 3.056608574964e+01 1.721818967475e-11 -3.964885904610e-09 0.000000000000e+00 
1.800000000000e+01 3.056631791445e+01 5.611862734215e-12 -3.930025684081e-09 0.000000000000e+00 
1.900000000000e+01 3.056751084456e+01 4.002287217550e-12 -3.879193780538e-09 0.000000000000e+00 
2.000000000000e+01 3.056785458201e+01 7.194424861147e-12 -3.826848004323e-09 0.000000000000e+00 
2.100000000000e+01 3.056811103686e+01 2.007010864481e-11 -3.788835292370e-09 0.000000000000e+00 
2.200000000000e+01 3.056817637415e+01 1.505759780511e-10 -3.893344674995e-09 0.000000000000e+00 
2.300000000000e+01 3.056818460963e+01 1.748698023604e-10 -4.152346769301e-09 0.000000000000e+00 
2.400000000000e+01 3.056821408422e+01 4.107473803971e-11 -4.301053492093e-09 0.000000000000e+00 
2.500000000000e+01 3.056968586096e+01 8.957374884670e-11 -4.361023410237e-09 0.000000000000e+00 
2.600000000000e+01 3.056969960435e+01 8.914096236043e-11 -4.464424448335e-09 0.000000000000e+00 
2.700000000000e+01 3.057302650351e+01 1.934543502928e-11 -4.490795201117e-09 0.000000000000e+00 
2.800000000000e+01 3.057309157930e+01 4.360128776286e-11 -4.465473578033e-09 0.000000000000e+00 
2.900000000000e+01 3.057314167446e+01 2.505761096607e-11 -4.445346734266e-09 0.000000000000e+00 
3.000000000000e+01 3.057601225325e+01 8.524046087502e-13 -4.426388086577e-09 0.000000000000e+00 
 ZONE T="TIME=4.320000000000e+05"
0.000000000000e+00 3.054125344488e+01 7.496724735956e-10 -7.378998488474e-10 0.000000000000e+00 
1.000000000000e+00 3.054125398891e+01 3.820037209750e-10 -1.108159014045e-09 0.000000000000e+00 
2.000000000000e+00 3.054131093729e+01 8.273554882886e-12 -1.474837433340e-09 0.000000000000e+00 
3.000000000000e+00 3.054168079038e+01 1.796592424561e-11 -1.477104853197e-09 0.000000000000e+00 
4.000000000000e+00 3.054170508844e+01 2.098266602367e-11 -1.491701884572e-09 0.000000000000e+00 
5.000000000000e+00 3.054180582529e+01 2.819779359115e-10 -1.770060716136e-09 0.000000000000e+00 
6.000000000000e+00 3.054180785392e+01 2.787347712286e-10 -2.305813659176e-09 0.000000000000e+00 
7.000000000000e+00 3.054261677598e+01 1.103331046428e-12 -2.558597992983e-09 0.000000000000e+00 
8.000000000000e+00 3.054574743421e+01 6.369916121404e-12 -2.532895554312e-09 0.000000000000e+00 
9.000000000000e+00 3.054586078816e+01 2.231791573472e-10 -2.723836305337e-09 0.000000000000e+00 
1.000000000000e+01 3.054586451544e+01 2.297739954512e-10 -3.136926696050e-09 0.000000000000e+00 
1.100000000000e+01 3.054593710300e+01 1.933376782249e-11 -3.345900288899e-09 0.000000000000e+00 
1.200000000000e+01 3.054607734373e+01 6.642752138438e-12 -3.320515467550e-09 0.000000000000e+00 
1.300000000000e+01 3.056397445613e+01 1.576359183446e-10 -3.379421079226e-09 0.000000000000e+00 
1.400000000000e+01 3.056398052956e+01 1.634581820150e-10 -3.541219220131e-09 0.000000000000e+00 
1.500000000000e+01 3.056415087365e+01 8.947357170693e-12 -3.542158137656e-09 0.000000000000e+00 
1.600000000000e+01 3.056446233083e+01 1.558601008667e-11 -3.391803499870e-09 0.000000000000e+00 
1.700000000000e+01 3.056453564637e+01 1.721817657771e-11 -3.246060768930e-09 0.000000000000e+00 
1.800000000000e+01 3.056472198629e+01 5.611779782323e-12 -3.084284727286e-09 0.000000000000e+00 
1.900000000000e+01 3.056563668411e+01 4.002209554952e-12 -2.892611095513e-09 0.000000000000e+00 
2.000000000000e+01 3.056588564726e+01 7.194083766929e-12 -2.683292631086e-09 0.000000000000e+00 
2.100000000000e+01 3.056605946284e+01 2.006833899458e-11 -2.478568032302e-09 0.000000000000e+00 
2.200000000000e+01 3.056610065341e+01 1.505533236987e-10 -2.411105942963e-09 0.000000000000e+00 
2.300000000000e+01 3.056610566718e+01 1.748309463057e-10 -2.496222072991e-09 0.000000000000e+00 
2.400000000000e+01 3.056612317574e+01 4.106287261339e-11 -2.464546556334e-09 0.000000000000e+00 
2.500000000000e+01 3.056693569515e+01 8.957351597294e-11 -2.315100268384e-09 0.000000000000e+00 
2.600000000000e+01 3.056694270654e+01 8.914039001897e-11 -2.164145878837e-09 0.000000000000e+00 
2.700000000000e+01 3.056847278580e+01 1.934553941802e-11 -1.849227822935e-09 0.000000000000e+00 
2.800000000000e+01 3.056849641687e+01 4.360107135969e-11 -1.399699558663e-09 0.000000000000e+00 
2.900000000000e+01 3.056850962902e+01 2.505661109889e-11 -9.111212033929e-10 0.000000000000e+00 
3.000000000000e+01 3.056892780574e+01 8.523318087697e-13 -6.448220346680e-10 0.000000000000e+00 
 ZONE T="TIME=5.184000000000e+05"
0.000000000000e+00 3.054094286341e+01 7.496647346578e-10 -7.316967175274e-10 0.000000000000e+00 
1.000000000000e+00 3.054094340287e+01 3.820109520689e-10 -1.095712056837e-09 0.000000000000e+00 
2.000000000000e+00 3.054099963128e+01 8.273814892392e-12 -1.449916777276e-09 0.000000000000e+00 
3.000000000000e+00 3.054136165357e+01 1.796578825114e-11 -1.439672085935e-09 0.000000000000e+00 
4.000000000000e+00 3.054138523536e+01 2.098287894789e-11 -1.441680687451e-09 0.000000000000e+00 
5.000000000000e+00 3.054148219052e+01 2.819758671257e-10 -1.707407950634e-09 0.000000000000e+00 
6.000000000000e+00 3.054148415055e+01 2.787412038079e-10 -2.230442935632e-09 0.000000000000e+00 
7.000000000000e+00 3.054226735672e+01 1.103365491690e-12 -2.470196143257e-09 0.000000000000e+00 
8.000000000000e+00 3.054528111475e+01 6.369837864158e-12 -2.430662738461e-09 0.000000000000e+00 
9.000000000000e+00 3.054538954764e+01 2.231750426137e-10 -2.607077257312e-09 0.000000000000e+00 
1.000000000000e+01 3.054539311691e+01 2.297728140856e-10 -3.005491026865e-09 0.000000000000e+00 
1.100000000000e+01 3.054546269449e+01 1.933365636121e-11 -3.199800450289e-09 0.000000000000e+00 
1.200000000000e+01 3.054559650309e+01 6.642748244729e-12 -3.161951280599e-09 0.000000000000e+00 
1.300000000000e+01 3.056260468384e+01 1.576342535335e-10 -3.219192519451e-09 0.000000000000e+00 
1.400000000000e+01 3.056261048235e+01 1.634570005960e-10 -3.390234861896e-09 0.000000000000e+00 
1.500000000000e+01 3.056277399214e+01 8.947284900096e-12 -3.403558377712e-09 0.000000000000e+00 
1.600000000000e+01 3.056307358519e+01 1.558583103339e-11 -3.268084795044e-09 0.000000000000e+00 
1.700000000000e+01 3.056314435021e+01 1.721799667875e-11 -3.140066036236e-09 0.000000000000e+00 
1.800000000000e+01 3.056332502156e+01 5.611738612195e-12 -3.001358054504e-09 0.000000000000e+00 
1.900000000000e+01 3.056421855042e+01 4.002251213541e-12 -2.848098813197e-09 0.000000000000e+00 
2.000000000000e+01 3.056446575525e+01 7.194345067287e-12 -2.695290341163e-09 0.000000000000e+00 
2.100000000000e+01 3.056464251869e+01 2.006981718081e-11 -2.558421885087e-09 0.000000000000e+00 
2.200000000000e+01 3.056468571661e+01 1.505728903562e-10 -2.565157784774e-09 0.000000000000e+00 
2.300000000000e+01 3.056469112482e+01 1.748650926279e-10 -2.726848656527e-09 0.000000000000e+00 
2.400000000000e+01 3.056471048093e+01 4.107352096954e-11 -2.780361263181e-09 0.000000000000e+00 
2.500000000000e+01 3.056564683025e+01 8.957375738566e-11 -2.754665576203e-09 0.000000000000e+00 
2.600000000000e+01 3.056565545034e+01 8.914041890811e-11 -2.788302488025e-09 0.000000000000e+00 
2.700000000000e+01 3.056772465865e+01 1.934539706081e-11 -2.779140791688e-09 0.000000000000e+00 
2.800000000000e+01 3.056776472638e+01 4.360080226273e-11 -2.751419678559e-09 0.000000000000e+00 
2.900000000000e+01 3.056779561504e+01 2.505672112772e-11 -2.749397806143e-09 0.000000000000e+00 
3.000000000000e+01 3.056957650623e+01 8.523659020904e-13 -2.746106668635e-09 0.000000000000e+00 
 ZONE T="TIME=6.048000000000e+05"
0.000000000000e+00 3.054055961999e+01 7.496602173882e-10 -7.274974025620e-10 0.000000000000e+00 
1.000000000000e+00 3.054056015636e+01 3.820163889745e-10 -1.087288637123e-09 0.000000000000e+00 
2.000000000000e+00 3.054061589760e+01 8.274007676842e-12 -1.433099609159e-09 0.000000000000e+00 
3.000000000000e+00 3.054097264409e+01 1.796574920451e-11 -1.414619502408e-09 0.000000000000e+00 
4.000000000000e+00 3.054099574878e+01 2.098315438764e-11 -1.408541821906e-09 0.000000000000e+00 
5.000000000000e+00 3.054109020915e+01 2.819765350673e-10 -1.666285607433e-09 0.000000000000e+00 
6.000000000000e+00 3.054109212433e+01 2.787480520129e-10 -2.181475006141e-09 0.000000000000e+00 
7.000000000000e+00 3.054185870815e+01 1.103425359492e-12 -2.414257461558e-09 0.000000000000e+00 
8.000000000000e+00 3.054479986288e+01 6.371063670714e-12 -2.370367106588e-09 0.000000000000e+00 
9.000000000000e+00 3.054490552710e+01 2.232523832286e-10 -2.544854546612e-09 0.000000000000e+00 
1.000000000000e+01 3.054490901630e+01 2.298972387931e-10 -2.941792034589e-09 0.000000000000e+00 
1.100000000000e+01 3.054497719457e+01 1.934634178695e-11 -3.134650573632e-09 0.000000000000e+00 
1.200000000000e+01 3.054510824525e+01 6.645031070419e-12 -3.101380480640e-09 0.000000000000e+00 
1.300000000000e+01 3.056181582683e+01 1.576351398492e-10 -3.191778190103e-09 0.000000000000e+00 
1.400000000000e+01 3.056182162627e+01 1.634543465558e-10 -3.424498912589e-09 0.000000000000e+00 
1.500000000000e+01 3.056198833618e+01 8.947284929224e-12 -3.505907511417e-09 0.000000000000e+00 
1.600000000000e+01 3.056230021763e+01 1.558764730499e-11 -3.440234704683e-09 0.000000000000e+00 
1.700000000000e+01 3.056237556865e+01 1.722029442094e-11 -3.383833782563e-09 0.000000000000e+00 
1.800000000000e+01 3.056257267833e+01 5.612164566217e-12 -3.319639117701e-09 0.000000000000e+00 
1.900000000000e+01 3.056357511291e+01 4.001553592735e-12 -3.248700744179e-09 0.000000000000e+00 
2.000000000000e+01 3.056386199032e+01 7.190732379211e-12 -3.187018674564e-09 0.000000000000e+00 
2.100000000000e+01 3.056407510529e+01 2.005062640556e-11 -3.146209548546e-09 0.000000000000e+00 
2.200000000000e+01 3.056412932029e+01 1.503232516883e-10 -3.251187568175e-09 0.000000000000e+00 
2.300000000000e+01 3.056413623847e+01 1.744274905981e-10 -3.512162602517e-09 0.000000000000e+00 
2.400000000000e+01 3.056416132800e+01 4.093405323468e-11 -3.667595188839e-09 0.000000000000e+00 
2.500000000000e+01 3.056541853392e+01 8.956029537552e-11 -3.753347453830e-09 0.000000000000e+00 
2.600000000000e+01 3.056543044876e+01 8.912814016144e-11 -3.911169344411e-09 0.000000000000e+00 
2.700000000000e+01 3.056837473586e+01 1.934537409262e-11 -4.044418117153e-09 0.000000000000e+00 
2.800000000000e+01 3.056843436988e+01 4.359943882750e-11 -4.175458472849e-09 0.000000000000e+00 
2.900000000000e+01 3.056848214762e+01 2.505442779427e-11 -4.332803723684e-09 0.000000000000e+00 
3.000000000000e+01 3.057134068636e+01 8.522751927477e-13 -4.407822517284e-09 0.000000000000e+00 
 ZONE T="TIME=6.912000000000e+05"
0.000000000000e+00 3.054018720754e+01 7.496545422976e-10 -7.281248410308e-10 0.000000000000e+00 
1.000000000000e+00 3.054018774436e+01 3.820183087916e-10 -1.088532627944e-09 0.000000000000e+00 
2.000000000000e+00 3.054024355727e+01 8.274091041634e-12 -1.435672490947e-09 0.000000000000e+00 
3.000000000000e+00 3.054060112962e+01 1.796559912604e-11 -1.418863661244e-09 0.000000000000e+00 
4.000000000000e+00 3.054062431957e+01 2.098311964027e-11 -1.414812739018e-09 0.000000000000e+00 
5.000000000000e+00 3.054071927264e+01 2.819730681229e-10 -1.674811396280e-09 0.000000000000e+00 
6.000000000000e+00 3.054072119748e+01 2.787462055642e-10 -2.192599622916e-09 0.000000000000e+00 
7.000000000000e+00 3.054149172419e+01 1.103397282002e-12 -2.429929987376e-09 0.000000000000e+00 
8.000000000000e+00 3.054445601367e+01 6.369823050657e-12 -2.396243058059e-09 0.000000000000e+00 
9.000000000000e+00 3.054456315941e+01 2.231735794904e-10 -2.585853745025e-09 0.000000000000e+00 
1.000000000000e+01 3.054456671108e+01 2.297728339936e-10 -2.999172295654e-09 0.000000000000e+00 
1.100000000000e+01 3.054463631444e+01 1.933367172351e-11 -3.208768520451e-09 0.000000000000e+00 
1.200000000000e+01 3.054477082518e+01 6.642784143359e-12 -3.201658494280e-09 0.000000000000e+00 
1.300000000000e+01 3.056211928646e+01 1.576350298907e-10 -3.363943209779e-09 0.000000000000e+00 
1.400000000000e+01 3.056212548281e+01 1.634599365253e-10 -3.714153782841e-09 0.000000000000e+00 
1.500000000000e+01 3.056230880589e+01 8.947462931633e-12 -3.923093165683e-09 0.000000000000e+00 
1.600000000000e+01 3.056266395874e+01 1.558593050148e-11 -3.987191757761e-09 0.000000000000e+00 
1.700000000000e+01 3.056275284135e+01 1.721820184754e-11 -4.062882829856e-09 0.000000000000e+00 
1.800000000000e+01 3.056299373100e+01 5.611822594543e-12 -4.134384198205e-09 0.000000000000e+00 
1.900000000000e+01 3.056426610137e+01 4.002274519839e-12 -4.208821827730e-09 0.000000000000e+00 
2.000000000000e+01 3.056464545477e+01 7.194399418878e-12 -4.303520488347e-09 0.000000000000e+00 
2.100000000000e+01 3.056493929645e+01 2.006991734609e-11 -4.425470065564e-09 0.000000000000e+00 
2.200000000000e+01 3.056501707571e+01 1.505728532183e-10 -4.696748549360e-09 0.000000000000e+00 
2.300000000000e+01 3.056502713410e+01 1.748632575140e-10 -5.124996209698e-09 0.000000000000e+00 
2.400000000000e+01 3.056506386781e+01 4.107206108130e-11 -5.450847218334e-09 0.000000000000e+00 
2.500000000000e+01 3.056695996274e+01 8.957363339503e-11 -5.722877374572e-09 0.000000000000e+00 
2.600000000000e+01 3.056697831951e+01 8.914111835892e-11 -6.090478018685e-09 0.000000000000e+00 
2.700000000000e+01 3.057160979975e+01 1.934544833643e-11 -6.476049444640e-09 0.000000000000e+00 
2.800000000000e+01 3.057170692879e+01 4.360111939867e-11 -6.899631887765e-09 0.000000000000e+00 
2.900000000000e+01 3.057178696521e+01 2.505710834754e-11 -7.368556690230e-09 0.000000000000e+00 
3.000000000000e+01 3.057671862783e+01 8.523799238961e-13 -7.604547466771e-09 0.000000000000e+00 
 ZONE T="TIME=7.776000000000e+05"
0.000000000000e+00 3.053991534140e+01 7.497033545617e-10 -7.339317636860e-10 0.000000000000e+00 
1.000000000000e+00 3.053991588251e+01 3.819968240346e-10 -1.100307530285e-09 0.000000000000e+00 
2.000000000000e+00 3.053997237886e+01 8.273198647197e-12 -1.459331623227e-09 0.000000000000e+00 
3.000000000000e+00 3.054033738605e+01 1.796659554139e-11 -1.454617962108e-09 0.000000000000e+00 
4.000000000000e+00 3.054036126306e+01 2.098254118041e-11 -1.463048131099e-09 0.000000000000e+00 
5.000000000000e+00 3.054045987766e+01 2.819883052446e-10 -1.735771036215e-09 0.000000000000e+00 
6.000000000000e+00 3.054046186952e+01 2.787315570500e-10 -2.266739910486e-09 0.000000000000e+00 
7.000000000000e+00 3.054125784024e+01 1.103297237140e-12 -2.519261131758e-09 0.000000000000e+00 
8.000000000000e+00 3.054434237927e+01 6.369865775770e-12 -2.506431325269e-09 0.000000000000e+00 
9.000000000000e+00 3.054445503915e+01 2.231725108926e-10 -2.721974214801e-09 0.000000000000e+00 
1.000000000000e+01 3.054445878135e+01 2.297536072157e-10 -3.162438198213e-09 0.000000000000e+00 
1.100000000000e+01 3.054453222159e+01 1.933159974506e-11 -3.399406007882e-09 0.000000000000e+00 
1.200000000000e+01 3.054467530051e+01 6.642368434287e-12 -3.426662479101e-09 0.000000000000e+00 
1.300000000000e+01 3.056335757304e+01 1.576376173349e-10 -3.656996719819e-09 0.000000000000e+00 
1.400000000000e+01 3.056336436653e+01 1.634573330864e-10 -4.108791787229e-09 0.000000000000e+00 
1.500000000000e+01 3.056356881136e+01 8.947286471939e-12 -4.426293910818e-09 0.000000000000e+00 
1.600000000000e+01 3.056397408812e+01 1.558606235213e-11 -4.599500747645e-09 0.000000000000e+00 
1.700000000000e+01 3.056407770568e+01 1.721805611291e-11 -4.784749759309e-09 0.000000000000e+00 
1.800000000000e+01 3.056436420515e+01 5.611711970036e-12 -4.966029531103e-09 0.000000000000e+00 
1.900000000000e+01 3.056590731724e+01 4.002236544059e-12 -5.150348993076e-09 0.000000000000e+00 
2.000000000000e+01 3.056637559262e+01 7.194081440444e-12 -5.354755234040e-09 0.000000000000e+00 
2.100000000000e+01 3.056674404213e+01 2.006812108430e-11 -5.585927707484e-09 0.000000000000e+00 
2.200000000000e+01 3.056684284378e+01 1.505478122490e-10 -5.965943075997e-09 0.000000000000e+00 
2.300000000000e+01 3.056685561972e+01 1.748119222858e-10 -6.502738260735e-09 0.000000000000e+00 