VARIABLES = "Time","Value"
ZONE T=obs_00500
0.000000000000e+00 0.000000000000e+00
8.640000000000e+04 2.881844525618e-06
1.728000000000e+05 2.881845095483e-06
2.592000000000e+05 2.881843552437e-06
3.456000000000e+05 2.881837554531e-06
4.320000000000e+05 2.881823095885e-06
5.184000000000e+05 2.881795585556e-06
6.048000000000e+05 2.881745209397e-06
6.912000000000e+05 2.881666881987e-06
7.776000000000e+05 2.881545182156e-06
8.640000000000e+05 2.881374249236e-06
9.504000000000e+05 2.881155427612e-06
1.036800000000e+06 2.880885728547e-06
1.123200000000e+06 2.880573144188e-06
1.209600000000e+06 2.880231459532e-06
1.296000000000e+06 2.879852947378e-06
1.382400000000e+06 2.879448590302e-06
1.468800000000e+06 2.879027410822e-06
1.555200000000e+06 2.878590664431e-06
1.641600000000e+06 2.878138175698e-06
1.728000000000e+06 2.877671897393e-06
1.814400000000e+06 2.877194156514e-06
1.900800000000e+06 2.876697293784e-06
1.987200000000e+06 2.876190002324e-06
2.073600000000e+06 2.875680635438e-06
2.160000000000e+06 2.875180584013e-06
2.246400000000e+06 2.874699752875e-06
2.332800000000e+06 2.874249714410e-06
2.419200000000e+06 2.873841936444e-06
2.505600000000e+06 2.873483822826e-06
2.592000000000e+06 2.873188481742e-06
2.678400000000e+06 2.872967619165e-06
2.764800000000e+06 2.872829416374e-06
2.851200000000e+06 2.872792781718e-06
2.937600000000e+06 2.872851696723e-06
3.024000000000e+06 2.873020934380e-06
3.110400000000e+06 2.873295684795e-06
3.196800000000e+06 2.873660445080e-06
3.283200000000e+06 2.874109889467e-06
3.369600000000e+06 2.874629750655e-06
3.456000000000e+06 2.875193611378e-06
3.542400000000e+06 2.875804719052e-06
3.628800000000e+06 2.876440745711e-06
3.715200000000e+06 2.877088378128e-06
3.801600000000e+06 2.877729570721e-06
3.888000000000e+06 2.878354087868e-06
3.974400000000e+06 2.878951879799e-06
4.060800000000e+06 2.879505581195e-06
4.147200000000e+06 2.880011335901e-06
4.233600000000e+06 2.880456522451e-06
4.320000000000e+06 2.880830810236e-06
4.406400000000e+06 2.881137788216e-06
4.492800000000e+06 2.881375178478e-06
4.579200000000e+06 2.881555498423e-06
4.665600000000e+06 2.881691758036e-06
4.752000000000e+06 2.881800429345e-06
4.838400000000e+06 2.881897219689e-06
4.924800000000e+06 2.881996229208e-06
5.011200000000e+06 2.882112219397e-06
5.097600000000e+06 2.882250202456e-06
5.184000000000e+06 2.882422253974e-06
5.270400000000e+06 2.882624632579e-06
5.356800000000e+06 2.882867706874e-06
5.443200000000e+06 2.883156151260e-06
5.529600000000e+06 2.883493116939e-06
5.616000000000e+06 2.883877976432e-06
5.702400000000e+06 2.884316000009e-06
5.788800000000e+06 2.884804973578e-06
5.875200000000e+06 2.885349723343e-06
5.961600000000e+06 2.885944096133e-06
6.048000000000e+06 2.886585860671e-06
6.134400000000e+06 2.887260861597e-06
6.220800000000e+06 2.887951432423e-06
6.307200000000e+06 2.888635545796e-06
