VARIABLES = "X","Y","Z",VELOCITY1_X,VELOCITY1_Y,VELOCITY1_Z
ZONE T="0.000000000000e+00s", 
4.900000000000e+01 0.000000000000e+00 5.000000000000e-01 0.000000000000e+00 0.000000000000e+00 0.000000000000e+00
5.000000000000e+01 0.000000000000e+00 5.000000000000e-01 0.000000000000e+00 0.000000000000e+00 0.000000000000e+00
4.900000000000e+01 0.000000000000e+00 1.500000000000e+00 0.000000000000e+00 0.000000000000e+00 0.000000000000e+00
5.000000000000e+01 0.000000000000e+00 1.500000000000e+00 0.000000000000e+00 0.000000000000e+00 0.000000000000e+00
4.900000000000e+01 0.000000000000e+00 2.500000000000e+00 0.000000000000e+00 0.000000000000e+00 0.000000000000e+00
5.000000000000e+01 0.000000000000e+00 2.500000000000e+00 0.000000000000e+00 0.000000000000e+00 0.000000000000e+00
4.900000000000e+01 0.000000000000e+00 3.500000000000e+00 0.000000000000e+00 0.000000000000e+00 0.000000000000e+00
5.000000000000e+01 0.000000000000e+00 3.500000000000e+00 0.000000000000e+00 0.000000000000e+00 0.000000000000e+00
4.900000000000e+01 0.000000000000e+00 4.500000000000e+00 0.000000000000e+00 0.000000000000e+00 0.000000000000e+00
5.000000000000e+01 0.000000000000e+00 4.500000000000e+00 0.000000000000e+00 0.000000000000e+00 0.000000000000e+00
4.900000000000e+01 0.000000000000e+00 5.500000000000e+00 0.000000000000e+00 0.000000000000e+00 0.000000000000e+00
5.000000000000e+01 0.000000000000e+00 5.500000000000e+00 0.000000000000e+00 0.000000000000e+00 0.000000000000e+00
4.900000000000e+01 0.000000000000e+00 6.500000000000e+00 0.000000000000e+00 0.000000000000e+00 0.000000000000e+00
5.000000000000e+01 0.000000000000e+00 6.500000000000e+00 0.000000000000e+00 0.000000000000e+00 0.000000000000e+00
4.900000000000e+01 0.000000000000e+00 7.500000000000e+00 0.000000000000e+00 0.000000000000e+00 0.000000000000e+00
5.000000000000e+01 0.000000000000e+00 7.500000000000e+00 0.000000000000e+00 0.000000000000e+00 0.000000000000e+00
4.900000000000e+01 0.000000000000e+00 8.500000000000e+00 0.000000000000e+00 0.000000000000e+00 0.000000000000e+00
5.000000000000e+01 0.000000000000e+00 8.500000000000e+00 0.000000000000e+00 0.000000000000e+00 0.000000000000e+00
4.900000000000e+01 0.000000000000e+00 9.500000000000e+00 0.000000000000e+00 0.000000000000e+00 0.000000000000e+00
5.000000000000e+01 0.000000000000e+00 9.500000000000e+00 0.000000000000e+00 0.000000000000e+00 0.000000000000e+00
4.900000000000e+01 0.000000000000e+00 1.050000000000e+01 0.000000000000e+00 0.000000000000e+00 0.000000000000e+00
5.000000000000e+01 0.000000000000e+00 1.050000000000e+01 0.000000000000e+00 0.000000000000e+00 0.000000000000e+00
4.900000000000e+01 0.000000000000e+00 1.150000000000e+01 0.000000000000e+00 0.000000000000e+00 0.000000000000e+00
5.000000000000e+01 0.000000000000e+00 1.150000000000e+01 0.000000000000e+00 0.000000000000e+00 0.000000000000e+00
4.900000000000e+01 0.000000000000e+00 1.250000000000e+01 0.000000000000e+00 0.000000000000e+00 0.000000000000e+00
5.000000000000e+01 0.000000000000e+00 1.250000000000e+01 0.000000000000e+00 0.000000000000e+00 0.000000000000e+00
4.900000000000e+01 0.000000000000e+00 1.350000000000e+01 0.000000000000e+00 0.000000000000e+00 0.000000000000e+00
5.000000000000e+01 0.000000000000e+00 1.350000000000e+01 0.000000000000e+00 0.000000000000e+00 0.000000000000e+00
4.900000000000e+01 0.000000000000e+00 1.450000000000e+01 0.000000000000e+00 0.000000000000e+00 0.000000000000e+00
5.000000000000e+01 0.000000000000e+00 1.450000000000e+01 0.000000000000e+00 0.000000000000e+00 0.000000000000e+00
4.900000000000e+01 0.000000000000e+00 1.550000000000e+01 0.000000000000e+00 0.000000000000e+00 0.000000000000e+00
5.000000000000e+01 0.000000000000e+00 1.550000000000e+01 0.000000000000e+00 0.000000000000e+00 0.000000000000e+00
4.900000000000e+01 0.000000000000e+00 1.650000000000e+01 0.000000000000e+00 0.000000000000e+00 0.000000000000e+00
5.000000000000e+01 0.000000000000e+00 1.650000000000e+01 0.000000000000e+00 0.000000000000e+00 0.000000000000e+00
4.900000000000e+01 0.000000000000e+00 1.750000000000e+01 0.000000000000e+00 0.000000000000e+00 0.000000000000e+00
5.000000000000e+01 0.000000000000e+00 1.750000000000e+01 0.000000000000e+00 0.000000000000e+00 0.000000000000e+00
4.900000000000e+01 0.000000000000e+00 1.850000000000e+01 0.000000000000e+00 0.000000000000e+00 0.000000000000e+00
5.000000000000e+01 0.000000000000e+00 1.850000000000e+01 0.000000000000e+00 0.000000000000e+00 0.000000000000e+00
4.900000000000e+01 0.000000000000e+00 1.950000000000e+01 0.000000000000e+00 0.000000000000e+00 0.000000000000e+00
5.000000000000e+01 0.000000000000e+00 1.950000000000e+01 0.000000000000e+00 0.000000000000e+00 0.000000000000e+00
4.900000000000e+01 0.000000000000e+00 2.050000000000e+01 0.000000000000e+00 0.000000000000e+00 0.000000000000e+00
5.000000000000e+01 0.000000000000e+00 2.050000000000e+01 0.000000000000e+00 0.000000000000e+00 0.000000000000e+00
4.900000000000e+01 0.000000000000e+00 2.150000000000e+01 0.000000000000e+00 0.000000000000e+00 0.000000000000e+00
5.000000000000e+01 0.000000000000e+00 2.150000000000e+01 0.000000000000e+00 0.000000000000e+00 0.000000000000e+00
4.900000000000e+01 0.000000000000e+00 2.250000000000e+01 0.000000000000e+00 0.000000000000e+00 0.000000000000e+00
5.000000000000e+01 0.000000000000e+00 2.250000000000e+01 0.000000000000e+00 0.000000000000e+00 0.000000000000e+00
4.900000000000e+01 0.000000000000e+00 2.350000000000e+01 0.000000000000e+00 0.000000000000e+00 0.000000000000e+00
5.000000000000e+01 0.000000000000e+00 2.350000000000e+01 0.000000000000e+00 0.000000000000e+00 0.000000000000e+00
4.900000000000e+01 0.000000000000e+00 2.450000000000e+01 0.000000000000e+00 0.000000000000e+00 0.000000000000e+00
5.000000000000e+01 0.000000000000e+00 2.450000000000e+01 0.000000000000e+00 0.000000000000e+00 0.000000000000e+00
4.900000000000e+01 0.000000000000e+00 2.550000000000e+01 0.000000000000e+00 0.000000000000e+00 0.000000000000e+00
5.000000000000e+01 0.000000000000e+00 2.550000000000e+01 0.000000000000e+00 0.000000000000e+00 0.000000000000e+00
4.900000000000e+01 0.000000000000e+00 2.650000000000e+01 0.000000000000e+00 0.000000000000e+00 0.000000000000e+00
5.000000000000e+01 0.000000000000e+00 2.650000000000e+01 0.000000000000e+00 0.000000000000e+00 0.000000000000e+00
4.900000000000e+01 0.000000000000e+00 2.750000000000e+01 0.000000000000e+00 0.000000000000e+00 0.000000000000e+00
5.000000000000e+01 0.000000000000e+00 2.750000000000e+01 0.000000000000e+00 0.000000000000e+00 0.000000000000e+00
4.900000000000e+01 0.000000000000e+00 2.850000000000e+01 0.000000000000e+00 0.000000000000e+00 0.000000000000e+00
5.000000000000e+01 0.000000000000e+00 2.850000000000e+01 0.000000000000e+00 0.000000000000e+00 0.000000000000e+00
4.900000000000e+01 0.000000000000e+00 2.950000000000e+01 0.000000000000e+00 0.000000000000e+00 0.000000000000e+00
5.000000000000e+01 0.000000000000e+00 2.950000000000e+01 0.000000000000e+00 0.000000000000e+00 0.000000000000e+00
VARIABLES = "X","Y","Z",VELOCITY1_X,VELOCITY1_Y,VELOCITY1_Z
ZONE T="1.797693134862e+308s", 
4.900000000000e+01 0.000000000000e+00 5.000000000000e-01 7.421569497638e-08 -7.496834571376e-10 0.000000000000e+00
5.000000000000e+01 0.000000000000e+00 5.000000000000e-01 7.571499006065e-08 -7.496829897234e-10 0.000000000000e+00
4.900000000000e+01 0.000000000000e+00 1.500000000000e+00 1.420501610567e-09 -1.513861121511e-09 0.000000000000e+00
5.000000000000e+01 0.000000000000e+00 1.500000000000e+00 1.449198375814e-09 -1.513860751204e-09 0.000000000000e+00
4.900000000000e+01 0.000000000000e+00 2.500000000000e+00 2.176632979878e-10 -1.530411440843e-09 0.000000000000e+00
5.000000000000e+01 0.000000000000e+00 2.500000000000e+00 2.220604990063e-10 -1.530411075051e-09 0.000000000000e+00
4.900000000000e+01 0.000000000000e+00 3.500000000000e+00 3.339507532708e-09 -1.566343974722e-09 0.000000000000e+00
5.000000000000e+01 0.000000000000e+00 3.500000000000e+00 3.406971830058e-09 -1.566343610233e-09 0.000000000000e+00
4.900000000000e+01 0.000000000000e+00 4.500000000000e+00 8.150046397029e-10 -1.608317229546e-09 0.000000000000e+00
5.000000000000e+01 0.000000000000e+00 4.500000000000e+00 8.314692621877e-10 -1.608316841825e-09 0.000000000000e+00
4.900000000000e+01 0.000000000000e+00 5.500000000000e+00 5.501535395045e-08 -2.172284068917e-09 0.000000000000e+00
5.000000000000e+01 0.000000000000e+00 5.500000000000e+00 5.612676720848e-08 -2.172283633127e-09 0.000000000000e+00
4.900000000000e+01 0.000000000000e+00 6.500000000000e+00 1.739738788732e-10 -2.729877299111e-09 0.000000000000e+00
5.000000000000e+01 0.000000000000e+00 6.500000000000e+00 1.774884772166e-10 -2.729876661983e-09 0.000000000000e+00
4.900000000000e+01 0.000000000000e+00 7.500000000000e+00 4.448587701338e-11 -2.732084351773e-09 0.000000000000e+00
5.000000000000e+01 0.000000000000e+00 7.500000000000e+00 4.538457595133e-11 -2.732083714581e-09 0.000000000000e+00
4.900000000000e+01 0.000000000000e+00 8.500000000000e+00 1.216728522054e-09 -2.744824400336e-09 0.000000000000e+00
5.000000000000e+01 0.000000000000e+00 8.500000000000e+00 1.241308833226e-09 -2.744823758788e-09 0.000000000000e+00
4.900000000000e+01 0.000000000000e+00 9.500000000000e+00 4.297169452673e-08 -3.191191525844e-09 0.000000000000e+00
5.000000000000e+01 0.000000000000e+00 9.500000000000e+00 4.383980720637e-08 -3.191190914829e-09 0.000000000000e+00
4.900000000000e+01 0.000000000000e+00 1.050000000000e+01 2.522863468038e-09 -3.650822672870e-09 0.000000000000e+00
5.000000000000e+01 0.000000000000e+00 1.050000000000e+01 2.573830270204e-09 -3.650821935106e-09 0.000000000000e+00
4.900000000000e+01 0.000000000000e+00 1.150000000000e+01 1.305166402386e-09 -3.689494887102e-09 0.000000000000e+00
5.000000000000e+01 0.000000000000e+00 1.150000000000e+01 1.331533334845e-09 -3.689494136217e-09 0.000000000000e+00
4.900000000000e+01 0.000000000000e+00 1.250000000000e+01 1.007716248861e-11 -3.702781490069e-09 0.000000000000e+00
5.000000000000e+01 0.000000000000e+00 1.250000000000e+01 1.028074142003e-11 -3.702780744384e-09 0.000000000000e+00
4.900000000000e+01 0.000000000000e+00 1.350000000000e+01 3.120114505999e-08 -4.018055553679e-09 0.000000000000e+00
5.000000000000e+01 0.000000000000e+00 1.350000000000e+01 3.183148124363e-08 -4.018055073601e-09 0.000000000000e+00
4.900000000000e+01 0.000000000000e+00 1.450000000000e+01 1.162775799869e-09 -4.344991409769e-09 0.000000000000e+00
5.000000000000e+01 0.000000000000e+00 1.450000000000e+01 1.186266590550e-09 -4.344990887907e-09 0.000000000000e+00
4.900000000000e+01 0.000000000000e+00 1.550000000000e+01 6.087542873580e-10 -4.362886785822e-09 0.000000000000e+00
5.000000000000e+01 0.000000000000e+00 1.550000000000e+01 6.210525461346e-10 -4.362886266271e-09 0.000000000000e+00
4.900000000000e+01 0.000000000000e+00 1.650000000000e+01 2.477191233969e-09 -4.394059029246e-09 0.000000000000e+00
5.000000000000e+01 0.000000000000e+00 1.650000000000e+01 2.527236292060e-09 -4.394058526991e-09 0.000000000000e+00
4.900000000000e+01 0.000000000000e+00 1.750000000000e+01 9.319001076876e-10 -4.428496651636e-09 0.000000000000e+00
5.000000000000e+01 0.000000000000e+00 1.750000000000e+01 9.507266718568e-10 -4.428496156376e-09 0.000000000000e+00
4.900000000000e+01 0.000000000000e+00 1.850000000000e+01 1.791970000108e-10 -4.439720566145e-09 0.000000000000e+00
5.000000000000e+01 0.000000000000e+00 1.850000000000e+01 1.828172039684e-10 -4.439720079049e-09 0.000000000000e+00
4.900000000000e+01 0.000000000000e+00 1.950000000000e+01 6.132348215962e-10 -4.447725196798e-09 0.000000000000e+00
5.000000000000e+01 0.000000000000e+00 1.950000000000e+01 6.256236203369e-10 -4.447724719010e-09 0.000000000000e+00
4.900000000000e+01 0.000000000000e+00 2.050000000000e+01 8.112194126291e-10 -4.462114346106e-09 0.000000000000e+00
5.000000000000e+01 0.000000000000e+00 2.050000000000e+01 8.276079664306e-10 -4.462113869744e-09 0.000000000000e+00
4.900000000000e+01 0.000000000000e+00 2.150000000000e+01 3.162538800418e-09 -4.502254928292e-09 0.000000000000e+00
5.000000000000e+01 0.000000000000e+00 2.150000000000e+01 3.226429536649e-09 -4.502254486860e-09 0.000000000000e+00
4.900000000000e+01 0.000000000000e+00 2.250000000000e+01 2.665046212691e-08 -4.803406958535e-09 0.000000000000e+00
5.000000000000e+01 0.000000000000e+00 2.250000000000e+01 2.718886477807e-08 -4.803406941233e-09 0.000000000000e+00
4.900000000000e+01 0.000000000000e+00 2.350000000000e+01 7.972239457217e-09 -5.153155243354e-09 0.000000000000e+00
5.000000000000e+01 0.000000000000e+00 2.350000000000e+01 8.133297826089e-09 -5.153155145015e-09 0.000000000000e+00
4.900000000000e+01 0.000000000000e+00 2.450000000000e+01 1.601838274209e-10 -5.235306463396e-09 0.000000000000e+00
5.000000000000e+01 0.000000000000e+00 2.450000000000e+01 1.634199269940e-10 -5.235306250292e-09 0.000000000000e+00
4.900000000000e+01 0.000000000000e+00 2.550000000000e+01 1.757515674647e-08 -5.414456389175e-09 0.000000000000e+00
5.000000000000e+01 0.000000000000e+00 2.550000000000e+01 1.793021658949e-08 -5.414456415419e-09 0.000000000000e+00
4.900000000000e+01 0.000000000000e+00 2.650000000000e+01 7.426494503723e-11 -5.592746339822e-09 0.000000000000e+00
5.000000000000e+01 0.000000000000e+00 2.650000000000e+01 7.576527380985e-11 -5.592746274877e-09 0.000000000000e+00
4.900000000000e+01 0.000000000000e+00 2.750000000000e+01 3.756061404590e-09 -5.631437626442e-09 0.000000000000e+00
5.000000000000e+01 0.000000000000e+00 2.750000000000e+01 3.831942742429e-09 -5.631437596448e-09 0.000000000000e+00
4.900000000000e+01 0.000000000000e+00 2.850000000000e+01 4.876735259699e-09 -5.718642196238e-09 0.000000000000e+00
5.000000000000e+01 0.000000000000e+00 2.850000000000e+01 4.975256891706e-09 -5.718642224100e-09 0.000000000000e+00
4.900000000000e+01 0.000000000000e+00 2.950000000000e+01 8.438223822192e-11 -5.768757927702e-09 0.000000000000e+00
5.000000000000e+01 0.000000000000e+00 2.950000000000e+01 8.608696126897e-11 -5.768757927554e-09 0.000000000000e+00
VARIABLES = "X","Y","Z",VELOCITY1_X,VELOCITY1_Y,VELOCITY1_Z
ZONE T="0.000000000000e+00s", 
4.900000000000e+01 0.000000000000e+00 5.000000000000e-01 0.000000000000e+00 0.000000000000e+00 0.000000000000e+00
5.000000000000e+01 0.000000000000e+00 5.000000000000e-01 0.000000000000e+00 0.000000000000e+00 0.000000000000e+00
4.900000000000e+01 0.000000000000e+00 1.500000000000e+00 0.000000000000e+00 0.000000000000e+00 0.000000000000e+00
5.000000000000e+01 0.000000000000e+00 1.500000000000e+00 0.000000000000e+00 0.000000000000e+00 0.000000000000e+00
4.900000000000e+01 0.000000000000e+00 2.500000000000e+00 0.000000000000e+00 0.000000000000e+00 0.000000000000e+00
5.000000000000e+01 0.000000000000e+00 2.500000000000e+00 0.000000000000e+00 0.000000000000e+00 0.000000000000e+00
4.900000000000e+01 0.000000000000e+00 3.500000000000e+00 0.000000000000e+00 0.000000000000e+00 0.000000000000e+00
5.000000000000e+01 0.000000000000e+00 3.500000000000e+00 0.000000000000e+00 0.000000000000e+00 0.000000000000e+00
4.900000000000e+01 0.000000000000e+00 4.500000000000e+00 0.000000000000e+00 0.000000000000e+00 0.000000000000e+00
5.000000000000e+01 0.000000000000e+00 4.500000000000e+00 0.000000000000e+00 0.000000000000e+00 0.000000000000e+00
4.900000000000e+01 0.000000000000e+00 5.500000000000e+00 0.000000000000e+00 0.000000000000e+00 0.000000000000e+00
5.000000000000e+01 0.000000000000e+00 5.500000000000e+00 0.000000000000e+00 0.000000000000e+00 0.000000000000e+00
4.900000000000e+01 0.000000000000e+00 6.500000000000e+00 0.000000000000e+00 0.000000000000e+00 0.000000000000e+00
5.000000000000e+01 0.000000000000e+00 6.500000000000e+00 0.000000000000e+00 0.000000000000e+00 0.000000000000e+00
4.900000000000e+01 0.000000000000e+00 7.500000000000e+00 0.000000000000e+00 0.000000000000e+00 0.000000000000e+00
5.000000000000e+01 0.000000000000e+00 7.500000000000e+00 0.000000000000e+00 0.000000000000e+00 0.000000000000e+00
4.900000000000e+01 0.000000000000e+00 8.500000000000e+00 0.000000000000e+00 0.000000000000e+00 0.000000000000e+00
5.000000000000e+01 0.000000000000e+00 8.500000000000e+00 0.000000000000e+00 0.000000000000e+00 0.000000000000e+00
4.900000000000e+01 0.000000000000e+00 9.500000000000e+00 0.000000000000e+00 0.000000000000e+00 0.000000000000e+00
5.000000000000e+01 0.000000000000e+00 9.500000000000e+00 0.000000000000e+00 0.000000000000e+00 0.000000000000e+00
4.900000000000e+01 0.000000000000e+00 1.050000000000e+01 0.000000000000e+00 0.000000000000e+00 0.000000000000e+00
5.000000000000e+01 0.000000000000e+00 1.050000000000e+01 0.000000000000e+00 0.000000000000e+00 0.000000000000e+00
4.900000000000e+01 0.000000000000e+00 1.150000000000e+01 0.000000000000e+00 0.000000000000e+00 0.000000000000e+00
5.000000000000e+01 0.000000000000e+00 1.150000000000e+01 0.000000000000e+00 0.000000000000e+00 0.000000000000e+00
4.900000000000e+01 0.000000000000e+00 1.250000000000e+01 0.000000000000e+00 0.000000000000e+00 0.000000000000e+00
5.000000000000e+01 0.000000000000e+00 1.250000000000e+01 0.000000000000e+00 0.000000000000e+00 0.000000000000e+00
4.900000000000e+01 0.000000000000e+00 1.350000000000e+01 0.000000000000e+00 0.000000000000e+00 0.000000000000e+00
5.000000000000e+01 0.000000000000e+00 1.350000000000e+01 0.000000000000e+00 0.000000000000e+00 0.000000000000e+00
4.900000000000e+01 0.000000000000e+00 1.450000000000e+01 0.000000000000e+00 0.000000000000e+00 0.000000000000e+00
5.000000000000e+01 0.000000000000e+00 1.450000000000e+01 0.000000000000e+00 0.000000000000e+00 0.000000000000e+00
4.900000000000e+01 0.000000000000e+00 1.550000000000e+01 0.000000000000e+00 0.000000000000e+00 0.000000000000e+00
5.000000000000e+01 0.000000000000e+00 1.550000000000e+01 0.000000000000e+00 0.000000000000e+00 0.000000000000e+00
4.900000000000e+01 0.000000000000e+00 1.650000000000e+01 0.000000000000e+00 0.000000000000e+00 0.000000000000e+00
5.000000000000e+01 0.000000000000e+00 1.650000000000e+01 0.000000000000e+00 0.000000000000e+00 0.000000000000e+00
4.900000000000e+01 0.000000000000e+00 1.750000000000e+01 0.000000000000e+00 0.000000000000e+00 0.000000000000e+00
5.000000000000e+01 0.000000000000e+00 1.750000000000e+01 0.000000000000e+00 0.000000000000e+00 0.000000000000e+00
4.900000000000e+01 0.000000000000e+00 1.850000000000e+01 0.000000000000e+00 0.000000000000e+00 0.000000000000e+00
5.000000000000e+01 0.000000000000e+00 1.850000000000e+01 0.000000000000e+00 0.000000000000e+00 0.000000000000e+00
4.900000000000e+01 0.000000000000e+00 1.950000000000e+01 0.000000000000e+00 0.000000000000e+00 0.000000000000e+00
5.000000000000e+01 0.000000000000e+00 1.950000000000e+01 0.000000000000e+00 0.000000000000e+00 0.000000000000e+00
4.900000000000e+01 0.000000000000e+00 2.050000000000e+01 0.000000000000e+00 0.000000000000e+00 0.000000000000e+00
5.000000000000e+01 0.000000000000e+00 2.050000000000e+01 0.000000000000e+00 0.000000000000e+00 0.000000000000e+00
4.900000000000e+01 0.000000000000e+00 2.150000000000e+01 0.000000000000e+00 0.000000000000e+00 0.000000000000e+00
5.000000000000e+01 0.000000000000e+00 2.150000000000e+01 0.000000000000e+00 0.000000000000e+00 0.000000000000e+00
4.900000000000e+01 0.000000000000e+00 2.250000000000e+01 0.000000000000e+00 0.000000000000e+00 0.000000000000e+00
5.000000000000e+01 0.000000000000e+00 2.250000000000e+01 0.000000000000e+00 0.000000000000e+00 0.000000000000e+00
4.900000000000e+01 0.000000000000e+00 2.350000000000e+01 0.000000000000e+00 0.000000000000e+00 0.000000000000e+00
5.000000000000e+01 0.000000000000e+00 2.350000000000e+01 0.000000000000e+00 0.000000000000e+00 0.000000000000e+00
4.900000000000e+01 0.000000000000e+00 2.450000000000e+01 0.000000000000e+00 0.000000000000e+00 0.000000000000e+00
5.000000000000e+01 0.000000000000e+00 2.450000000000e+01 0.000000000000e+00 0.000000000000e+00 0.000000000000e+00
4.900000000000e+01 0.000000000000e+00 2.550000000000e+01 0.000000000000e+00 0.000000000000e+00 0.000000000000e+00
5.000000000000e+01 0.000000000000e+00 2.550000000000e+01 0.000000000000e+00 0.000000000000e+00 0.000000000000e+00
4.900000000000e+01 0.000000000000e+00 2.650000000000e+01 0.000000000000e+00 0.000000000000e+00 0.000000000000e+00
5.000000000000e+01 0.000000000000e+00 2.650000000000e+01 0.000000000000e+00 0.000000000000e+00 0.000000000000e+00
4.900000000000e+01 0.000000000000e+00 2.750000000000e+01 0.000000000000e+00 0.000000000000e+00 0.000000000000e+00
5.000000000000e+01 0.000000000000e+00 2.750000000000e+01 0.000000000000e+00 0.000000000000e+00 0.000000000000e+00
4.900000000000e+01 0.000000000000e+00 2.850000000000e+01 0.000000000000e+00 0.000000000000e+00 0.000000000000e+00
5.000000000000e+01 0.000000000000e+00 2.850000000000e+01 0.000000000000e+00 0.000000000000e+00 0.000000000000e+00
4.900000000000e+01 0.000000000000e+00 2.950000000000e+01 0.000000000000e+00 0.000000000000e+00 0.000000000000e+00
5.000000000000e+01 0.000000000000e+00 2.950000000000e+01 0.000000000000e+00 0.000000000000e+00 0.000000000000e+00
VARIABLES = "X","Y","Z",VELOCITY1_X,VELOCITY1_Y,VELOCITY1_Z
ZONE T="8.640000000000e+04s", 
4.900000000000e+01 0.000000000000e+00 5.000000000000e-01 7.421565364094e-08 -7.474618808282e-10 0.000000000000e+00
5.000000000000e+01 0.000000000000e+00 5.000000000000e-01 7.571495546959e-08 -7.474617073548e-10 0.000000000000e+00
4.900000000000e+01 0.000000000000e+00 1.500000000000e+00 1.420500816840e-09 -1.506993245010e-09 0.000000000000e+00
5.000000000000e+01 0.000000000000e+00 1.500000000000e+00 1.449197720548e-09 -1.506992842699e-09 0.000000000000e+00
4.900000000000e+01 0.000000000000e+00 2.500000000000e+00 2.176631848571e-10 -1.519133798404e-09 0.000000000000e+00
5.000000000000e+01 0.000000000000e+00 2.500000000000e+00 2.220604082385e-10 -1.519133394483e-09 0.000000000000e+00
4.900000000000e+01 0.000000000000e+00 3.500000000000e+00 3.339506327848e-09 -1.550430603968e-09 0.000000000000e+00
5.000000000000e+01 0.000000000000e+00 3.500000000000e+00 3.406970908592e-09 -1.550430194596e-09 0.000000000000e+00
4.900000000000e+01 0.000000000000e+00 4.500000000000e+00 8.150043592439e-10 -1.587654654124e-09 0.000000000000e+00
5.000000000000e+01 0.000000000000e+00 4.500000000000e+00 8.314690468163e-10 -1.587654235129e-09 0.000000000000e+00
4.900000000000e+01 0.000000000000e+00 5.500000000000e+00 5.501533687517e-08 -2.146729555640e-09 0.000000000000e+00
5.000000000000e+01 0.000000000000e+00 5.500000000000e+00 5.612675471480e-08 -2.146729019833e-09 0.000000000000e+00
4.900000000000e+01 0.000000000000e+00 6.500000000000e+00 1.739738315368e-10 -2.699042757923e-09 0.000000000000e+00
5.000000000000e+01 0.000000000000e+00 6.500000000000e+00 1.774884447313e-10 -2.699042063932e-09 0.000000000000e+00
4.900000000000e+01 0.000000000000e+00 7.500000000000e+00 4.448588440472e-11 -2.694546928299e-09 0.000000000000e+00
5.000000000000e+01 0.000000000000e+00 7.500000000000e+00 4.538458718276e-11 -2.694546232542e-09 0.000000000000e+00
4.900000000000e+01 0.000000000000e+00 8.500000000000e+00 1.216730154509e-09 -2.696792663221e-09 0.000000000000e+00
5.000000000000e+01 0.000000000000e+00 8.500000000000e+00 1.241310551761e-09 -2.696791960213e-09 0.000000000000e+00
4.900000000000e+01 0.000000000000e+00 9.500000000000e+00 4.297175409163e-08 -3.131578479191e-09 0.000000000000e+00
5.000000000000e+01 0.000000000000e+00 9.500000000000e+00 4.383987007187e-08 -3.131577731465e-09 0.000000000000e+00
4.900000000000e+01 0.000000000000e+00 1.050000000000e+01 2.522866978026e-09 -3.579445849484e-09 0.000000000000e+00
5.000000000000e+01 0.000000000000e+00 1.050000000000e+01 2.573833970960e-09 -3.579445066183e-09 0.000000000000e+00
4.900000000000e+01 0.000000000000e+00 1.150000000000e+01 1.305168244358e-09 -3.606292345618e-09 0.000000000000e+00
5.000000000000e+01 0.000000000000e+00 1.150000000000e+01 1.331535272712e-09 -3.606291550752e-09 0.000000000000e+00
4.900000000000e+01 0.000000000000e+00 1.250000000000e+01 1.007718447589e-11 -3.596307359354e-09 0.000000000000e+00
5.000000000000e+01 0.000000000000e+00 1.250000000000e+01 1.028076420520e-11 -3.596306547389e-09 0.000000000000e+00
4.900000000000e+01 0.000000000000e+00 1.350000000000e+01 3.120139519933e-08 -3.843624980864e-09 0.000000000000e+00
5.000000000000e+01 0.000000000000e+00 1.350000000000e+01 3.183173400061e-08 -3.843624399504e-09 0.000000000000e+00
4.900000000000e+01 0.000000000000e+00 1.450000000000e+01 1.162785117238e-09 -4.091180700899e-09 0.000000000000e+00
5.000000000000e+01 0.000000000000e+00 1.450000000000e+01 1.186276011935e-09 -4.091180243128e-09 0.000000000000e+00
4.900000000000e+01 0.000000000000e+00 1.550000000000e+01 6.087591319913e-10 -4.028207098198e-09 0.000000000000e+00
5.000000000000e+01 0.000000000000e+00 1.550000000000e+01 6.210574519919e-10 -4.028206603467e-09 0.000000000000e+00
4.900000000000e+01 0.000000000000e+00 1.650000000000e+01 2.477210853777e-09 -3.975780587197e-09 0.000000000000e+00
5.000000000000e+01 0.000000000000e+00 1.650000000000e+01 2.527256193250e-09 -3.975780094110e-09 0.000000000000e+00
4.900000000000e+01 0.000000000000e+00 1.750000000000e+01 9.319074896394e-10 -3.924754402142e-09 0.000000000000e+00
5.000000000000e+01 0.000000000000e+00 1.750000000000e+01 9.507341616287e-10 -3.924753867557e-09 0.000000000000e+00
4.900000000000e+01 0.000000000000e+00 1.850000000000e+01 1.791984370341e-10 -3.844548906804e-09 0.000000000000e+00
5.000000000000e+01 0.000000000000e+00 1.850000000000e+01 1.828186562306e-10 -3.844548329208e-09 0.000000000000e+00
4.900000000000e+01 0.000000000000e+00 1.950000000000e+01 6.132400283569e-10 -3.745320613338e-09 0.000000000000e+00
5.000000000000e+01 0.000000000000e+00 1.950000000000e+01 6.256288711399e-10 -3.745320016392e-09 0.000000000000e+00
4.900000000000e+01 0.000000000000e+00 2.050000000000e+01 8.112264738963e-10 -3.643068307420e-09 0.000000000000e+00
5.000000000000e+01 0.000000000000e+00 2.050000000000e+01 8.276149958481e-10 -3.643067622343e-09 0.000000000000e+00
4.900000000000e+01 0.000000000000e+00 2.150000000000e+01 3.162567190599e-09 -3.560780170156e-09 0.000000000000e+00
5.000000000000e+01 0.000000000000e+00 2.150000000000e+01 3.226457046916e-09 -3.560779245817e-09 0.000000000000e+00
4.900000000000e+01 0.000000000000e+00 2.250000000000e+01 2.665070699094e-08 -3.737130734452e-09 0.000000000000e+00
5.000000000000e+01 0.000000000000e+00 2.250000000000e+01 2.718909054162e-08 -3.737124580151e-09 0.000000000000e+00
4.900000000000e+01 0.000000000000e+00 2.350000000000e+01 7.972315420367e-09 -3.961437371416e-09 0.000000000000e+00
5.000000000000e+01 0.000000000000e+00 2.350000000000e+01 8.133362957047e-09 -3.961432771240e-09 0.000000000000e+00
4.900000000000e+01 0.000000000000e+00 2.450000000000e+01 1.601853990878e-10 -3.908734305172e-09 0.000000000000e+00
5.000000000000e+01 0.000000000000e+00 2.450000000000e+01 1.634212450206e-10 -3.908734437639e-09 0.000000000000e+00
4.900000000000e+01 0.000000000000e+00 2.550000000000e+01 1.757529278118e-08 -3.917817856606e-09 0.000000000000e+00
5.000000000000e+01 0.000000000000e+00 2.550000000000e+01 1.793035102364e-08 -3.917816182747e-09 0.000000000000e+00
4.900000000000e+01 0.000000000000e+00 2.650000000000e+01 7.426553266614e-11 -3.892770698040e-09 0.000000000000e+00
5.000000000000e+01 0.000000000000e+00 2.650000000000e+01 7.576583268392e-11 -3.892770597948e-09 0.000000000000e+00
4.900000000000e+01 0.000000000000e+00 2.750000000000e+01 3.756093423889e-09 -3.630830611095e-09 0.000000000000e+00
5.000000000000e+01 0.000000000000e+00 2.750000000000e+01 3.831969934666e-09 -3.630827549564e-09 0.000000000000e+00
4.900000000000e+01 0.000000000000e+00 2.850000000000e+01 4.876779400511e-09 -3.390478810770e-09 0.000000000000e+00
5.000000000000e+01 0.000000000000e+00 2.850000000000e+01 4.975295388789e-09 -3.390486419115e-09 0.000000000000e+00
4.900000000000e+01 0.000000000000e+00 2.950000000000e+01 8.438282245318e-11 -3.076775416938e-09 0.000000000000e+00
5.000000000000e+01 0.000000000000e+00 2.950000000000e+01 8.608760396870e-11 -3.076775821051e-09 0.000000000000e+00
VARIABLES = "X","Y","Z",VELOCITY1_X,VELOCITY1_Y,VELOCITY1_Z
ZONE T="1.728000000000e+05s", 
4.900000000000e+01 0.000000000000e+00 5.000000000000e-01 7.421603874928e-08 -7.462260569664e-10 0.000000000000e+00
5.000000000000e+01 0.000000000000e+00 5.000000000000e-01 7.571534717715e-08 -7.462259605924e-10 0.000000000000e+00
4.900000000000e+01 0.000000000000e+00 1.500000000000e+00 1.420508176249e-09 -1.503464581499e-09 0.000000000000e+00
5.000000000000e+01 0.000000000000e+00 1.500000000000e+00 1.449205207812e-09 -1.503464270313e-09 0.000000000000e+00
4.900000000000e+01 0.000000000000e+00 2.500000000000e+00 2.176642935881e-10 -1.513053926590e-09 0.000000000000e+00
5.000000000000e+01 0.000000000000e+00 2.500000000000e+00 2.220615362039e-10 -1.513053581206e-09 0.000000000000e+00
4.900000000000e+01 0.000000000000e+00 3.500000000000e+00 3.339522538799e-09 -1.541902489587e-09 0.000000000000e+00
5.000000000000e+01 0.000000000000e+00 3.500000000000e+00 3.406987413915e-09 -1.541902106885e-09 0.000000000000e+00
4.900000000000e+01 0.000000000000e+00 4.500000000000e+00 8.150083098336e-10 -1.576735868753e-09 0.000000000000e+00
5.000000000000e+01 0.000000000000e+00 4.500000000000e+00 8.314730691943e-10 -1.576735449440e-09 0.000000000000e+00
4.900000000000e+01 0.000000000000e+00 5.500000000000e+00 5.501560357272e-08 -2.133503506958e-09 0.000000000000e+00
5.000000000000e+01 0.000000000000e+00 5.500000000000e+00 5.612702628328e-08 -2.133502974723e-09 0.000000000000e+00
4.900000000000e+01 0.000000000000e+00 6.500000000000e+00 1.739746702121e-10 -2.683766749088e-09 0.000000000000e+00
5.000000000000e+01 0.000000000000e+00 6.500000000000e+00 1.774892988396e-10 -2.683766096698e-09 0.000000000000e+00
4.900000000000e+01 0.000000000000e+00 7.500000000000e+00 4.448608785734e-11 -2.677902168374e-09 0.000000000000e+00
5.000000000000e+01 0.000000000000e+00 7.500000000000e+00 4.538479449894e-11 -2.677901486525e-09 0.000000000000e+00
4.900000000000e+01 0.000000000000e+00 8.500000000000e+00 1.216735382693e-09 -2.680884276169e-09 0.000000000000e+00