 TITLE = "Profiles along polylines"
 VARIABLES = "DIST" "HEAD" "VELOCITY_X1" "VELOCITY_Y1" "VELOCITY_Z1" 
 ZONE T="TIME=0.000000000000e+00"
0.000000000000e+00 3.000000000000e+01 0.000000000000e+00 0.000000000000e+00 0.000000000000e+00 
1.000000000000e+00 3.000000000000e+01 0.000000000000e+00 0.000000000000e+00 0.000000000000e+00 
2.000000000000e+00 3.000000000000e+01 0.000000000000e+00 0.000000000000e+00 0.000000000000e+00 
3.000000000000e+00 3.000000000000e+01 0.000000000000e+00 0.000000000000e+00 0.000000000000e+00 
4.000000000000e+00 3.000000000000e+01 0.000000000000e+00 0.000000000000e+00 0.000000000000e+00 
5.000000000000e+00 3.000000000000e+01 0.000000000000e+00 0.000000000000e+00 0.000000000000e+00 
6.000000000000e+00 3.000000000000e+01 0.000000000000e+00 0.000000000000e+00 0.000000000000e+00 
7.000000000000e+00 3.000000000000e+01 0.000000000000e+00 0.000000000000e+00 0.000000000000e+00 
8.000000000000e+00 3.000000000000e+01 0.000000000000e+00 0.000000000000e+00 0.000000000000e+00 
9.000000000000e+00 3.000000000000e+01 0.000000000000e+00 0.000000000000e+00 0.000000000000e+00 
1.000000000000e+01 3.000000000000e+01 0.000000000000e+00 0.000000000000e+00 0.000000000000e+00 
1.100000000000e+01 3.000000000000e+01 0.000000000000e+00 0.000000000000e+00 0.000000000000e+00 
1.200000000000e+01 3.000000000000e+01 0.000000000000e+00 0.000000000000e+00 0.000000000000e+00 
1.300000000000e+01 3.000000000000e+01 0.000000000000e+00 0.000000000000e+00 0.000000000000e+00 
1.400000000000e+01 3.000000000000e+01 0.000000000000e+00 0.000000000000e+00 0.000000000000e+00 
1.500000000000e+01 3.000000000000e+01 0.000000000000e+00 0.000000000000e+00 0.000000000000e+00 
1.600000000000e+01 3.000000000000e+01 0.000000000000e+00 0.000000000000e+00 0.000000000000e+00 
1.700000000000e+01 3.000000000000e+01 0.000000000000e+00 0.000000000000e+00 0.000000000000e+00 
1.800000000000e+01 3.000000000000e+01 0.000000000000e+00 0.000000000000e+00 0.000000000000e+00 
1.900000000000e+01 3.000000000000e+01 0.000000000000e+00 0.000000000000e+00 0.000000000000e+00 
2.000000000000e+01 3.000000000000e+01 0.000000000000e+00 0.000000000000e+00 0.000000000000e+00 
2.100000000000e+01 3.000000000000e+01 0.000000000000e+00 0.000000000000e+00 0.000000000000e+00 
2.200000000000e+01 3.000000000000e+01 0.000000000000e+00 0.000000000000e+00 0.000000000000e+00 
2.300000000000e+01 3.000000000000e+01 0.000000000000e+00 0.000000000000e+00 0.000000000000e+00 
2.400000000000e+01 3.000000000000e+01 0.000000000000e+00 0.000000000000e+00 0.000000000000e+00 
2.500000000000e+01 3.000000000000e+01 0.000000000000e+00 0.000000000000e+00 0.000000000000e+00 
2.600000000000e+01 3.000000000000e+01 0.000000000000e+00 0.000000000000e+00 0.000000000000e+00 
2.700000000000e+01 3.000000000000e+01 0.000000000000e+00 0.000000000000e+00 0.000000000000e+00 
2.800000000000e+01 3.000000000000e+01 0.000000000000e+00 0.000000000000e+00 0.000000000000e+00 
2.900000000000e+01 3.000000000000e+01 0.000000000000e+00 0.000000000000e+00 0.000000000000e+00 
3.000000000000e+01 3.000000000000e+01 0.000000000000e+00 0.000000000000e+00 0.000000000000e+00 
 TITLE = "Profiles along polylines"
 VARIABLES = "DIST" "HEAD" "VELOCITY_X1" "VELOCITY_Y1" "VELOCITY_Z1" 
 ZONE T="TIME=8.640000000000e+04"
0.000000000000e+00 3.000000000000e+01 1.342583942262e-06 9.912989068863e-19 0.000000000000e+00 
1.000000000000e+00 3.000000000000e+01 6.841433515343e-07 2.622457996077e-20 0.000000000000e+00 
2.000000000000e+00 3.000000000000e+01 1.482373612962e-08 3.700200161113e-20 0.000000000000e+00 
3.000000000000e+00 3.000000000000e+01 3.227770149450e-08 -1.623540683237e-20 0.000000000000e+00 
4.000000000000e+00 3.000000000000e+01 3.770487249556e-08 -2.276558005085e-20 0.000000000000e+00 
5.000000000000e+00 3.000000000000e+01 5.070859757523e-07 -2.501856811387e-19 0.000000000000e+00 
6.000000000000e+00 3.000000000000e+01 5.012715897695e-07 -2.415632008953e-19 0.000000000000e+00 
7.000000000000e+00 3.000000000000e+01 1.996708220463e-09 -1.165795382209e-21 0.000000000000e+00 
8.000000000000e+00 3.000000000000e+01 1.180841209202e-08 1.636141039831e-20 0.000000000000e+00 
9.000000000000e+00 3.000000000000e+01 4.140843920815e-07 -7.042429214732e-19 0.000000000000e+00 
1.000000000000e+01 3.000000000000e+01 4.263372992293e-07 -7.426356430443e-19 0.000000000000e+00 
1.100000000000e+01 3.000000000000e+01 3.589624976725e-08 -5.876403662854e-20 0.000000000000e+00 
1.200000000000e+01 3.000000000000e+01 1.234883464286e-08 -2.185377064233e-20 0.000000000000e+00 
1.300000000000e+01 3.000000000000e+01 3.403777545312e-07 4.900363436425e-19 0.000000000000e+00 
1.400000000000e+01 3.000000000000e+01 3.529726247418e-07 3.162110766293e-19 0.000000000000e+00 
1.500000000000e+01 3.000000000000e+01 1.936842054583e-08 -2.689412769880e-21 0.000000000000e+00 
1.600000000000e+01 3.000000000000e+01 3.389572677229e-08 3.910379367239e-20 0.000000000000e+00 
1.700000000000e+01 3.000000000000e+01 3.748786124563e-08 2.933619670381e-20 0.000000000000e+00 
1.800000000000e+01 3.000000000000e+01 1.225544408310e-08 -1.316897869255e-20 0.000000000000e+00 
1.900000000000e+01 3.000000000000e+01 8.876498965787e-09 2.779007072900e-21 0.000000000000e+00 
2.000000000000e+01 3.000000000000e+01 1.602562051983e-08 -1.874469220124e-21 0.000000000000e+00 
2.100000000000e+01 3.000000000000e+01 4.484960923470e-08 4.879387254884e-20 0.000000000000e+00 
2.200000000000e+01 3.000000000000e+01 3.367655449373e-07 -6.373045064488e-19 0.000000000000e+00 
2.300000000000e+01 3.000000000000e+01 3.911541227952e-07 3.156838684413e-19 0.000000000000e+00 
2.400000000000e+01 3.000000000000e+01 9.194121174375e-08 2.059396650157e-19 0.000000000000e+00 
2.500000000000e+01 3.000000000000e+01 2.078035651895e-07 -1.701509683955e-19 0.000000000000e+00 
2.600000000000e+01 3.000000000000e+01 2.068938078202e-07 -1.723882205338e-19 0.000000000000e+00 
2.700000000000e+01 3.000000000000e+01 5.144149717333e-08 -6.629348546427e-21 0.000000000000e+00 
2.800000000000e+01 3.000000000000e+01 1.165373978947e-07 -7.329221054388e-20 0.000000000000e+00 
2.900000000000e+01 3.000000000000e+01 6.765790325846e-08 -4.384584574172e-20 0.000000000000e+00 
3.000000000000e+01 3.000000000000e+01 4.833726006198e-09 -2.680065184672e-22 0.000000000000e+00 
 ZONE T="TIME=1.728000000000e+05"
0.000000000000e+00 3.000000000000e+01 1.341970849044e-06 1.829391774067e-18 0.000000000000e+00 
1.000000000000e+00 3.000000000000e+01 6.838309195920e-07 4.572400371077e-19 0.000000000000e+00 
2.000000000000e+00 3.000000000000e+01 1.481692517136e-08 -1.005405594073e-20 0.000000000000e+00 
3.000000000000e+00 3.000000000000e+01 3.226220424506e-08 -3.681969324323e-21 0.000000000000e+00 
4.000000000000e+00 3.000000000000e+01 3.768671360067e-08 -2.818246811666e-20 0.000000000000e+00 
5.000000000000e+00 3.000000000000e+01 5.068384120671e-07 7.485905905911e-19 0.000000000000e+00 
6.000000000000e+00 3.000000000000e+01 5.010268023123e-07 4.261274282099e-19 0.000000000000e+00 
7.000000000000e+00 3.000000000000e+01 1.995639669615e-09 -1.492199064679e-21 0.000000000000e+00 
8.000000000000e+00 3.000000000000e+01 1.180022519452e-08 -2.385623041125e-21 0.000000000000e+00 
9.000000000000e+00 3.000000000000e+01 4.137960857415e-07 9.531693954710e-19 0.000000000000e+00 
1.000000000000e+01 3.000000000000e+01 4.260404730276e-07 7.279914418010e-19 0.000000000000e+00 
1.100000000000e+01 3.000000000000e+01 3.587134222076e-08 1.017207914995e-20 0.000000000000e+00 
1.200000000000e+01 3.000000000000e+01 1.234036304075e-08 -1.899676867716e-20 0.000000000000e+00 
1.300000000000e+01 3.000000000000e+01 3.410010584611e-07 3.363694082796e-19 0.000000000000e+00 
1.400000000000e+01 3.000000000000e+01 3.536209512138e-07 3.086061103537e-19 0.000000000000e+00 
1.500000000000e+01 3.000000000000e+01 1.940966876386e-08 3.398561211760e-20 0.000000000000e+00 
1.600000000000e+01 3.000000000000e+01 3.399178229611e-08 2.757232088535e-21 0.000000000000e+00 
1.700000000000e+01 3.000000000000e+01 3.760216590765e-08 -2.889472792693e-20 0.000000000000e+00 
1.800000000000e+01 3.000000000000e+01 1.230130643932e-08 -1.630058695060e-20 0.000000000000e+00 
1.900000000000e+01 3.000000000000e+01 8.947059025696e-09 -1.093498307302e-20 0.000000000000e+00 
2.000000000000e+01 3.000000000000e+01 1.617666382507e-08 1.043255294292e-21 0.000000000000e+00 
2.100000000000e+01 3.000000000000e+01 4.533317862556e-08 2.293090969607e-21 0.000000000000e+00 
2.200000000000e+01 3.000000000000e+01 3.405414810756e-07 4.433879918101e-19 0.000000000000e+00 
2.300000000000e+01 3.000000000000e+01 3.955706174600e-07 1.945021663884e-19 0.000000000000e+00 
2.400000000000e+01 3.000000000000e+01 9.301304010934e-08 -1.001572180924e-19 0.000000000000e+00 
2.500000000000e+01 3.000000000000e+01 2.144031351900e-07 2.750113379454e-19 0.000000000000e+00 
2.600000000000e+01 3.000000000000e+01 2.135312937537e-07 1.709490017967e-19 0.000000000000e+00 
2.700000000000e+01 3.000000000000e+01 5.831343820902e-08 -3.777350801820e-20 0.000000000000e+00 
2.800000000000e+01 3.000000000000e+01 1.327036858701e-07 2.817966532542e-20 0.000000000000e+00 
2.900000000000e+01 3.000000000000e+01 7.779623347044e-08 6.581419246043e-20 0.000000000000e+00 
3.000000000000e+01 3.000000000000e+01 8.570839292479e-09 -9.654231724260e-22 0.000000000000e+00 
 ZONE T="TIME=2.592000000000e+05"
0.000000000000e+00 3.000000000000e+01 1.341205659165e-06 4.287864292938e-19 0.000000000000e+00 
1.000000000000e+00 3.000000000000e+01 6.834409819886e-07 -2.311404637928e-19 0.000000000000e+00 
2.000000000000e+00 3.000000000000e+01 1.480843203670e-08 1.909247737164e-22 0.000000000000e+00 
3.000000000000e+00 3.000000000000e+01 3.224297353216e-08 -1.287423339922e-20 0.000000000000e+00 
4.000000000000e+00 3.000000000000e+01 3.766418418886e-08 -1.872963148341e-20 0.000000000000e+00 
5.000000000000e+00 3.000000000000e+01 5.065313059954e-07 1.132927080012e-18 0.000000000000e+00 
6.000000000000e+00 3.000000000000e+01 5.007231374379e-07 8.094231085626e-19 0.000000000000e+00 
7.000000000000e+00 3.000000000000e+01 1.994305405395e-09 7.007756615585e-22 0.000000000000e+00 
8.000000000000e+00 3.000000000000e+01 1.178929164200e-08 9.511153131493e-21 0.000000000000e+00 
9.000000000000e+00 3.000000000000e+01 4.134083758423e-07 -6.679035790900e-19 0.000000000000e+00 
1.000000000000e+01 3.000000000000e+01 4.256411189258e-07 -7.097711303083e-19 0.000000000000e+00 
1.100000000000e+01 3.000000000000e+01 3.583740371428e-08 -6.447615325018e-20 0.000000000000e+00 
1.200000000000e+01 3.000000000000e+01 1.232846118853e-08 -1.676020487994e-20 0.000000000000e+00 
1.300000000000e+01 3.000000000000e+01 3.397341613663e-07 6.543422366847e-19 0.000000000000e+00 
1.400000000000e+01 3.000000000000e+01 3.523060911584e-07 4.641466919970e-19 0.000000000000e+00 
1.500000000000e+01 3.000000000000e+01 1.933459854835e-08 -3.664581668769e-21 0.000000000000e+00 
1.600000000000e+01 3.000000000000e+01 3.384838757349e-08 -5.894533473699e-21 0.000000000000e+00 
1.700000000000e+01 3.000000000000e+01 3.743955102892e-08 1.135492394940e-21 0.000000000000e+00 
1.800000000000e+01 3.000000000000e+01 1.224392349741e-08 2.152057180037e-21 0.000000000000e+00 
1.900000000000e+01 3.000000000000e+01 8.886815477370e-09 3.025994398858e-21 0.000000000000e+00 
2.000000000000e+01 3.000000000000e+01 1.605576510994e-08 -5.374597952128e-22 0.000000000000e+00 
2.100000000000e+01 3.000000000000e+01 4.496275988652e-08 7.808341897221e-20 0.000000000000e+00 
2.200000000000e+01 3.000000000000e+01 3.376818950764e-07 -3.398130982926e-19 0.000000000000e+00 
2.300000000000e+01 3.000000000000e+01 3.922323530814e-07 -3.513892490311e-19 0.000000000000e+00 
2.400000000000e+01 3.000000000000e+01 9.220974442136e-08 -1.426399457133e-19 0.000000000000e+00 
2.500000000000e+01 3.000000000000e+01 2.102481252505e-07 -3.003762082166e-20 0.000000000000e+00 
2.600000000000e+01 3.000000000000e+01 2.093551775294e-07 -1.387089108121e-19 0.000000000000e+00 
2.700000000000e+01 3.000000000000e+01 5.409906963743e-08 3.853561439659e-20 0.000000000000e+00 
2.800000000000e+01 3.000000000000e+01 1.227666191752e-07 -6.962447716753e-20 0.000000000000e+00 
2.900000000000e+01 3.000000000000e+01 7.153067825925e-08 9.730897149876e-20 0.000000000000e+00 
3.000000000000e+01 3.000000000000e+01 6.094632438530e-09 1.570505790508e-21 0.000000000000e+00 
 ZONE T="TIME=3.456000000000e+05"
0.000000000000e+00 3.000000000000e+01 1.340190525366e-06 -2.952574539008e-18 0.000000000000e+00 
1.000000000000e+00 3.000000000000e+01 6.829236719353e-07 2.047077355717e-18 0.000000000000e+00 
2.000000000000e+00 3.000000000000e+01 1.479715702429e-08 2.876067572045e-20 0.000000000000e+00 
3.000000000000e+00 3.000000000000e+01 3.221730071513e-08 3.831413216801e-21 0.000000000000e+00 
4.000000000000e+00 3.000000000000e+01 3.763409394526e-08 -1.095951041202e-20 0.000000000000e+00 
5.000000000000e+00 3.000000000000e+01 5.061201899457e-07 -6.662819594800e-19 0.000000000000e+00 
6.000000000000e+00 3.000000000000e+01 5.003166099274e-07 -9.978693152674e-19 0.000000000000e+00 
7.000000000000e+00 3.000000000000e+01 1.992489620871e-09 -2.199251080304e-21 0.000000000000e+00 
8.000000000000e+00 3.000000000000e+01 1.177371120550e-08 -6.783173696642e-21 0.000000000000e+00 
9.000000000000e+00 3.000000000000e+01 4.128551163522e-07 -2.647706276947e-20 0.000000000000e+00 
1.000000000000e+01 3.000000000000e+01 4.250712093320e-07 -3.159378751904e-20 0.000000000000e+00 
1.100000000000e+01 3.000000000000e+01 3.578890578073e-08 -2.388844451188e-20 0.000000000000e+00 
1.200000000000e+01 3.000000000000e+01 1.231140748955e-08 -5.173764315513e-21 0.000000000000e+00 
1.300000000000e+01 3.000000000000e+01 3.380120273678e-07 -3.215610339999e-19 0.000000000000e+00 
1.400000000000e+01 3.000000000000e+01 3.505193893946e-07 -5.206661528793e-19 0.000000000000e+00 
1.500000000000e+01 3.000000000000e+01 1.923456749393e-08 -1.709086613938e-20 0.000000000000e+00 
1.600000000000e+01 3.000000000000e+01 3.366613340811e-08 -2.067562891800e-20 0.000000000000e+00 
1.700000000000e+01 3.000000000000e+01 3.723585455328e-08 -2.502167917428e-20 0.000000000000e+00 
1.800000000000e+01 3.000000000000e+01 1.217532962922e-08 -3.010711752365e-21 0.000000000000e+00 
1.900000000000e+01 3.000000000000e+01 8.829392656676e-09 -3.428723516730e-21 0.000000000000e+00 
2.000000000000e+01 3.000000000000e+01 1.594805856883e-08 2.829397942425e-23 0.000000000000e+00 
2.100000000000e+01 3.000000000000e+01 4.465291323360e-08 5.377286248729e-20 0.000000000000e+00 
2.200000000000e+01 3.000000000000e+01 3.353389104090e-07 1.957436572533e-19 0.000000000000e+00 
2.300000000000e+01 3.000000000000e+01 3.895077451661e-07 6.130714036345e-20 0.000000000000e+00 
2.400000000000e+01 3.000000000000e+01 9.156589771869e-08 2.279785236310e-20 0.000000000000e+00 
2.500000000000e+01 3.000000000000e+01 2.084208691174e-07 5.002703082110e-20 0.000000000000e+00 
2.600000000000e+01 3.000000000000e+01 2.075325513192e-07 -5.454795737844e-20 0.000000000000e+00 
2.700000000000e+01 3.000000000000e+01 5.351929955206e-08 -9.871356941532e-21 0.000000000000e+00 
2.800000000000e+01 3.000000000000e+01 1.214717670918e-07 -7.118728306976e-20 0.000000000000e+00 
2.900000000000e+01 3.000000000000e+01 7.081039620106e-08 -4.000272584170e-20 0.000000000000e+00 
3.000000000000e+01 3.000000000000e+01 6.219817956053e-09 -1.872116521361e-21 0.000000000000e+00 
 ZONE T="TIME=4.320000000000e+05"
0.000000000000e+00 3.000000000000e+01 1.338225157057e-06 1.551940122123e-18 0.000000000000e+00 
1.000000000000e+00 3.000000000000e+01 6.819221003606e-07 7.775733782657e-19 0.000000000000e+00 
2.000000000000e+00 3.000000000000e+01 1.477526169557e-08 2.074675819604e-21 0.000000000000e+00 
3.000000000000e+00 3.000000000000e+01 3.216617990726e-08 -2.599134475231e-20 0.000000000000e+00 
4.000000000000e+00 3.000000000000e+01 3.757405641528e-08 -2.616326497067e-20 0.000000000000e+00 
5.000000000000e+00 3.000000000000e+01 5.052916532443e-07 1.283563140363e-18 0.000000000000e+00 
6.000000000000e+00 3.000000000000e+01 4.994971606993e-07 -1.352820694342e-18 0.000000000000e+00 
7.000000000000e+00 3.000000000000e+01 1.988576170782e-09 -1.805853290795e-21 0.000000000000e+00 
8.000000000000e+00 3.000000000000e+01 1.173404095360e-08 3.838965947812e-21 0.000000000000e+00 
9.000000000000e+00 3.000000000000e+01 4.114390824636e-07 -4.480572931325e-19 0.000000000000e+00 
1.000000000000e+01 3.000000000000e+01 4.236122073786e-07 -4.393815947673e-19 0.000000000000e+00 
1.100000000000e+01 3.000000000000e+01 3.566403278155e-08 3.502670777579e-20 0.000000000000e+00 
1.200000000000e+01 3.000000000000e+01 1.226695588763e-08 1.506487766626e-20 0.000000000000e+00 
1.300000000000e+01 3.000000000000e+01 3.313212804677e-07 -3.505222464171e-19 0.000000000000e+00 
1.400000000000e+01 3.000000000000e+01 3.435763015400e-07 -3.475487104859e-19 0.000000000000e+00 
1.500000000000e+01 3.000000000000e+01 1.884153154192e-08 -1.375519322190e-20 0.000000000000e+00 
1.600000000000e+01 3.000000000000e+01 3.293214281193e-08 -4.913028999378e-21 0.000000000000e+00 
1.700000000000e+01 3.000000000000e+01 3.640960996810e-08 -2.675149947619e-20 0.000000000000e+00 
1.800000000000e+01 3.000000000000e+01 1.189085247585e-08 -3.205812427548e-21 0.000000000000e+00 
1.900000000000e+01 3.000000000000e+01 8.563829107578e-09 -7.284964660086e-21 0.000000000000e+00 
2.000000000000e+01 3.000000000000e+01 1.543358653042e-08 -1.346345625279e-20 0.000000000000e+00 
2.100000000000e+01 3.000000000000e+01 4.312876760349e-08 -7.575586041036e-20 0.000000000000e+00 
2.200000000000e+01 3.000000000000e+01 3.237037310108e-07 3.127635333905e-19 0.000000000000e+00 
2.300000000000e+01 3.000000000000e+01 3.759534561826e-07 1.825732621957e-19 0.000000000000e+00 
2.400000000000e+01 3.000000000000e+01 8.833620483336e-08 -9.589554863944e-20 0.000000000000e+00 
2.500000000000e+01 3.000000000000e+01 1.958311887159e-07 -1.860412560918e-19 0.000000000000e+00 
2.600000000000e+01 3.000000000000e+01 1.949189565820e-07 -2.927355959293e-19 0.000000000000e+00 
2.700000000000e+01 3.000000000000e+01 4.446579422649e-08 1.437526207673e-21 0.000000000000e+00 
2.800000000000e+01 3.000000000000e+01 1.003423102276e-07 2.093081181457e-20 0.000000000000e+00 
2.900000000000e+01 3.000000000000e+01 5.777980734576e-08 -9.464132452460e-21 0.000000000000e+00 
3.000000000000e+01 3.000000000000e+01 2.294359600766e-09 -2.964078940462e-21 0.000000000000e+00 
 ZONE T="TIME=5.184000000000e+05"
0.000000000000e+00 3.000000000000e+01 1.335338020263e-06 6.861936807535e-19 0.000000000000e+00 
1.000000000000e+00 3.000000000000e+01 6.804508080831e-07 -1.229912751321e-19 0.000000000000e+00 
2.000000000000e+00 3.000000000000e+01 1.474315912999e-08 -2.963896679514e-20 0.000000000000e+00 
3.000000000000e+00 3.000000000000e+01 3.209244480018e-08 3.698596189799e-20 0.000000000000e+00 
4.000000000000e+00 3.000000000000e+01 3.748757767244e-08 4.487958385202e-20 0.000000000000e+00 
5.000000000000e+00 3.000000000000e+01 5.041065004446e-07 -5.248715891715e-19 0.000000000000e+00 
6.000000000000e+00 3.000000000000e+01 4.983251692125e-07 -8.638728259749e-19 0.000000000000e+00 
7.000000000000e+00 3.000000000000e+01 1.983242025561e-09 -1.394162662552e-21 0.000000000000e+00 
8.000000000000e+00 3.000000000000e+01 1.168638601228e-08 -1.308909020594e-20 0.000000000000e+00 
9.000000000000e+00 3.000000000000e+01 4.097462074407e-07 1.173329905805e-19 0.000000000000e+00 
1.000000000000e+01 3.000000000000e+01 4.218684084128e-07 -1.025822772368e-19 0.000000000000e+00 
1.100000000000e+01 3.000000000000e+01 3.551573029464e-08 3.760514495668e-20 0.000000000000e+00 
1.200000000000e+01 3.000000000000e+01 1.221490304424e-08 4.423491835203e-21 0.000000000000e+00 
1.300000000000e+01 3.000000000000e+01 3.268287205992e-07 4.114875840788e-19 0.000000000000e+00 
1.400000000000e+01 3.000000000000e+01 3.389165974544e-07 2.173678739665e-19 0.000000000000e+00 
1.500000000000e+01 3.000000000000e+01 1.858458236699e-08 -2.357947483212e-20 0.000000000000e+00 
1.600000000000e+01 3.000000000000e+01 3.248065091521e-08 -7.968848297931e-21 0.000000000000e+00 
1.700000000000e+01 3.000000000000e+01 3.591052086755e-08 -2.440187214555e-20 0.000000000000e+00 
1.800000000000e+01 3.000000000000e+01 1.172861129073e-08 -8.642022360126e-21 0.000000000000e+00 
1.900000000000e+01 3.000000000000e+01 8.453079397388e-09 2.461648406460e-22 0.000000000000e+00 
2.000000000000e+01 3.000000000000e+01 1.523989635608e-08 -1.394078384440e-20 0.000000000000e+00 
2.100000000000e+01 3.000000000000e+01 4.260703480748e-08 7.563928448954e-20 0.000000000000e+00 
2.200000000000e+01 3.000000000000e+01 3.198419645774e-07 4.273678180774e-19 0.000000000000e+00 
2.300000000000e+01 3.000000000000e+01 3.714801471978e-07 2.895783200307e-19 0.000000000000e+00 
2.400000000000e+01 3.000000000000e+01 8.729816802632e-08 -6.316142342818e-20 0.000000000000e+00 
2.500000000000e+01 3.000000000000e+01 1.952403051144e-07 -3.065947777803e-19 0.000000000000e+00 
2.600000000000e+01 3.000000000000e+01 1.943627881989e-07 -3.070806700537e-19 0.000000000000e+00 
2.700000000000e+01 3.000000000000e+01 4.702994295607e-08 -2.610639205002e-20 0.000000000000e+00 
2.800000000000e+01 3.000000000000e+01 1.065046033255e-07 1.019928978732e-19 0.000000000000e+00 
2.900000000000e+01 3.000000000000e+01 6.181341362406e-08 -1.045293405929e-19 0.000000000000e+00 
3.000000000000e+01 3.000000000000e+01 4.457250823623e-09 -4.226996327723e-21 0.000000000000e+00 
 ZONE T="TIME=6.048000000000e+05"
0.000000000000e+00 3.000000000000e+01 1.332146821155e-06 6.748651609757e-19 0.000000000000e+00 
1.000000000000e+00 3.000000000000e+01 6.788246044897e-07 -8.994707081231e-20 0.000000000000e+00 
2.000000000000e+00 3.000000000000e+01 1.470778362685e-08 5.831977233055e-21 0.000000000000e+00 
3.000000000000e+00 3.000000000000e+01 3.201322101865e-08 2.643331885455e-20 0.000000000000e+00 
4.000000000000e+00 3.000000000000e+01 3.739485059967e-08 2.491015085254e-20 0.000000000000e+00 
5.000000000000e+00 3.000000000000e+01 5.028485274132e-07 6.615923167543e-19 0.000000000000e+00 
6.000000000000e+00 3.000000000000e+01 4.970814124762e-07 3.347171167983e-19 0.000000000000e+00 
7.000000000000e+00 3.000000000000e+01 1.977969088960e-09 2.400099257202e-21 0.000000000000e+00 
8.000000000000e+00 3.000000000000e+01 1.164826543909e-08 -4.683800560605e-21 0.000000000000e+00 
9.000000000000e+00 3.000000000000e+01 4.084022054697e-07 7.685285704946e-20 0.000000000000e+00 
1.000000000000e+01 3.000000000000e+01 4.204844574769e-07 -1.822133136989e-19 0.000000000000e+00 
1.100000000000e+01 3.000000000000e+01 3.539899324366e-08 -1.113110626340e-20 0.000000000000e+00 
1.200000000000e+01 3.000000000000e+01 1.217465392972e-08 1.734058890679e-20 0.000000000000e+00 
1.300000000000e+01 3.000000000000e+01 3.259651783692e-07 4.749082973775e-19 0.000000000000e+00 
1.400000000000e+01 3.000000000000e+01 3.380227049903e-07 4.463648611519e-19 0.000000000000e+00 
1.500000000000e+01 3.000000000000e+01 1.854036885565e-08 2.923815661613e-20 0.000000000000e+00 
1.600000000000e+01 3.000000000000e+01 3.242349010397e-08 -5.231757905850e-20 0.000000000000e+00 
1.700000000000e+01 3.000000000000e+01 3.585405339107e-08 6.386094620191e-20 0.000000000000e+00 
1.800000000000e+01 3.000000000000e+01 1.171716604771e-08 -4.902531974411e-21 0.000000000000e+00 
1.900000000000e+01 3.000000000000e+01 8.474919557009e-09 5.999064283668e-21 0.000000000000e+00 
2.000000000000e+01 3.000000000000e+01 1.529752063565e-08 1.745046513922e-20 0.000000000000e+00 
2.100000000000e+01 3.000000000000e+01 4.281284891541e-08 -9.885814023000e-21 0.000000000000e+00 
2.200000000000e+01 3.000000000000e+01 3.214889238263e-07 -7.242506166878e-19 0.000000000000e+00 
2.300000000000e+01 3.000000000000e+01 3.734141309321e-07 7.048388983393e-19 0.000000000000e+00 
2.400000000000e+01 3.000000000000e+01 8.777557808373e-08 1.293907230293e-19 0.000000000000e+00 
2.500000000000e+01 3.000000000000e+01 1.990746033839e-07 -2.312866705283e-20 0.000000000000e+00 
2.600000000000e+01 3.000000000000e+01 1.982204105171e-07 -2.332574606495e-20 0.000000000000e+00 
2.700000000000e+01 3.000000000000e+01 5.091260231332e-08 3.255347894173e-20 0.000000000000e+00 
2.800000000000e+01 3.000000000000e+01 1.155844602684e-07 4.093388887337e-20 0.000000000000e+00 
2.900000000000e+01 3.000000000000e+01 6.742950424115e-08 8.180913193377e-21 0.000000000000e+00 
3.000000000000e+01 3.000000000000e+01 6.161497075158e-09 -3.068943470148e-21 0.000000000000e+00 
 ZONE T="TIME=6.912000000000e+05"
0.000000000000e+00 3.000000000000e+01 1.329652725104e-06 4.262026636415e-19 0.000000000000e+00 
1.000000000000e+00 3.000000000000e+01 6.775536947146e-07 -2.125029033580e-19 0.000000000000e+00 
2.000000000000e+00 3.000000000000e+01 1.468029028107e-08 1.002157955963e-20 0.000000000000e+00 
3.000000000000e+00 3.000000000000e+01 3.195449351608e-08 -2.941182358710e-20 0.000000000000e+00 
4.000000000000e+00 3.000000000000e+01 3.732637981446e-08 -2.794522132962e-20 0.000000000000e+00 
5.000000000000e+00 3.000000000000e+01 5.019374913527e-07 -2.863597053373e-19 0.000000000000e+00 
6.000000000000e+00 3.000000000000e+01 4.961810170047e-07 -2.830382579170e-19 0.000000000000e+00 
7.000000000000e+00 3.000000000000e+01 1.974693732468e-09 2.269079255342e-22 0.000000000000e+00 
8.000000000000e+00 3.000000000000e+01 1.163781735911e-08 -2.385300655761e-21 0.000000000000e+00 
9.000000000000e+00 3.000000000000e+01 4.080517138217e-07 6.813269376313e-19 0.000000000000e+00 
1.000000000000e+01 3.000000000000e+01 4.201243745475e-07 7.262814090083e-19 0.000000000000e+00 
1.100000000000e+01 3.000000000000e+01 3.537025736317e-08 4.256472765468e-21 0.000000000000e+00 
1.200000000000e+01 3.000000000000e+01 1.216598026366e-08 -1.500897027349e-20 0.000000000000e+00 
1.300000000000e+01 3.000000000000e+01 3.304080145178e-07 -2.191886220872e-19 0.000000000000e+00 
1.400000000000e+01 3.000000000000e+01 3.426346299930e-07 -2.201971171660e-19 0.000000000000e+00 
1.500000000000e+01 3.000000000000e+01 1.880562054371e-08 1.110243696289e-21 0.000000000000e+00 
1.600000000000e+01 3.000000000000e+01 3.293457642628e-08 9.809653427972e-21 0.000000000000e+00 
1.700000000000e+01 3.000000000000e+01 3.643402355186e-08 -1.618584754845e-20 0.000000000000e+00 
1.800000000000e+01 3.000000000000e+01 1.192138328317e-08 -9.115262869690e-21 0.000000000000e+00 
1.900000000000e+01 3.000000000000e+01 8.683154652029e-09 2.514904216845e-21 0.000000000000e+00 
2.000000000000e+01 3.000000000000e+01 1.570852626053e-08 -4.143655154705e-21 0.000000000000e+00 
2.100000000000e+01 3.000000000000e+01 4.404628289425e-08 -5.700215217268e-20 0.000000000000e+00 
2.200000000000e+01 3.000000000000e+01 3.309359998091e-07 -9.367418862786e-20 0.000000000000e+00 
2.300000000000e+01 3.000000000000e+01 3.844255640135e-07 -2.391275107079e-20 0.000000000000e+00 
2.400000000000e+01 3.000000000000e+01 9.040593638457e-08 2.793886771767e-20 0.000000000000e+00 
2.500000000000e+01 3.000000000000e+01 2.100688744724e-07 -6.526402930358e-21 0.000000000000e+00 
2.600000000000e+01 3.000000000000e+01 2.092396019075e-07 -1.133392260913e-19 0.000000000000e+00 
2.700000000000e+01 3.000000000000e+01 5.899469977752e-08 2.597218684239e-20 0.000000000000e+00 
2.800000000000e+01 3.000000000000e+01 1.344220698470e-07 5.710447174874e-20 0.000000000000e+00 
2.900000000000e+01 3.000000000000e+01 7.900835115392e-08 5.557561579454e-20 0.000000000000e+00 
3.000000000000e+01 3.000000000000e+01 9.465677549723e-09 1.732736588145e-21 0.000000000000e+00 
 ZONE T="TIME=7.776000000000e+05"
0.000000000000e+00 3.000000000000e+01 1.328684378235e-06 -1.553345875311e-19 0.000000000000e+00 
1.000000000000e+00 3.000000000000e+01 6.770603366735e-07 -7.542693530125e-20 0.000000000000e+00 
2.000000000000e+00 3.000000000000e+01 1.466982927269e-08 -6.193566800336e-21 0.000000000000e+00 
3.000000000000e+00 3.000000000000e+01 3.193606678342e-08 3.286007830273e-20 0.000000000000e+00 
4.000000000000e+00 3.000000000000e+01 3.730527773236e-08 -5.464980232528e-21 0.000000000000e+00 
5.000000000000e+00 3.000000000000e+01 5.016822311732e-07 -6.697881756685e-19 0.000000000000e+00 
6.000000000000e+00 3.000000000000e+01 4.959292386741e-07 -6.894850261883e-19 0.000000000000e+00 
7.000000000000e+00 3.000000000000e+01 1.974559675304e-09 -8.058047791845e-22 0.000000000000e+00 
8.000000000000e+00 3.000000000000e+01 1.165936307646e-08 5.886381725892e-21 0.000000000000e+00 
9.000000000000e+00 3.000000000000e+01 4.088408972665e-07 -3.925209472377e-19 0.000000000000e+00 
1.000000000000e+01 3.000000000000e+01 4.209383489831e-07 -3.526592283517e-19 0.000000000000e+00 
1.100000000000e+01 3.000000000000e+01 3.544152377089e-08 2.706625689588e-20 0.000000000000e+00 
1.200000000000e+01 3.000000000000e+01 1.219250239619e-08 -1.902991138698e-20 0.000000000000e+00 
1.300000000000e+01 3.000000000000e+01 3.380999646705e-07 -7.930626737517e-21 0.000000000000e+00 
1.400000000000e+01 3.000000000000e+01 3.506163754944e-07 -1.536798776295e-20 0.000000000000e+00 
1.500000000000e+01 3.000000000000e+01 1.925612176098e-08 -1.371407233892e-20 0.000000000000e+00 
1.600000000000e+01 3.000000000000e+01 3.376877694914e-08 -2.161732678947e-20 0.000000000000e+00 
1.700000000000e+01 3.000000000000e+01 3.737038419770e-08 -1.967531017420e-20 0.000000000000e+00 
1.800000000000e+01 3.000000000000e+01 1.224065036150e-08 -4.660067383660e-21 0.000000000000e+00 
1.900000000000e+01 3.000000000000e+01 8.966600615006e-09 -1.111559188112e-20 0.000000000000e+00 
2.000000000000e+01 3.000000000000e+01 1.624910157988e-08 -5.853973754806e-21 0.000000000000e+00 
2.100000000000e+01 3.000000000000e+01 4.562419147832e-08 2.699282411876e-20 0.000000000000e+00 
2.200000000000e+01 3.000000000000e+01 3.429229631151e-07 3.314836716461e-19 0.000000000000e+00 
2.300000000000e+01 3.000000000000e+01 3.983771912361e-07 1.886619356256e-19 0.000000000000e+00 
2.400000000000e+01 3.000000000000e+01 9.371659039320e-08 3.882483034295e-20 0.000000000000e+00 
2.500000000000e+01 3.000000000000e+01 2.212239277871e-07 6.671875081097e-20 0.000000000000e+00 