VARIABLES = "X","Y","Z",VELOCITY1_X,VELOCITY1_Y,VELOCITY1_Z
ZONE T="0.000000000000e+00s", 
2.490000000000e+02 0.000000000000e+00 5.000000000000e-01 0.000000000000e+00 0.000000000000e+00 0.000000000000e+00
2.500000000000e+02 0.000000000000e+00 5.000000000000e-01 0.000000000000e+00 0.000000000000e+00 0.000000000000e+00
2.490000000000e+02 0.000000000000e+00 1.500000000000e+00 0.000000000000e+00 0.000000000000e+00 0.000000000000e+00
2.500000000000e+02 0.000000000000e+00 1.500000000000e+00 0.000000000000e+00 0.000000000000e+00 0.000000000000e+00
2.490000000000e+02 0.000000000000e+00 2.500000000000e+00 0.000000000000e+00 0.000000000000e+00 0.000000000000e+00
2.500000000000e+02 0.000000000000e+00 2.500000000000e+00 0.000000000000e+00 0.000000000000e+00 0.000000000000e+00
2.490000000000e+02 0.000000000000e+00 3.500000000000e+00 0.000000000000e+00 0.000000000000e+00 0.000000000000e+00
2.500000000000e+02 0.000000000000e+00 3.500000000000e+00 0.000000000000e+00 0.000000000000e+00 0.000000000000e+00
2.490000000000e+02 0.000000000000e+00 4.500000000000e+00 0.000000000000e+00 0.000000000000e+00 0.000000000000e+00
2.500000000000e+02 0.000000000000e+00 4.500000000000e+00 0.000000000000e+00 0.000000000000e+00 0.000000000000e+00
2.490000000000e+02 0.000000000000e+00 5.500000000000e+00 0.000000000000e+00 0.000000000000e+00 0.000000000000e+00
2.500000000000e+02 0.000000000000e+00 5.500000000000e+00 0.000000000000e+00 0.000000000000e+00 0.000000000000e+00
2.490000000000e+02 0.000000000000e+00 6.500000000000e+00 0.000000000000e+00 0.000000000000e+00 0.000000000000e+00
2.500000000000e+02 0.000000000000e+00 6.500000000000e+00 0.000000000000e+00 0.000000000000e+00 0.000000000000e+00
2.490000000000e+02 0.000000000000e+00 7.500000000000e+00 0.000000000000e+00 0.000000000000e+00 0.000000000000e+00
2.500000000000e+02 0.000000000000e+00 7.500000000000e+00 0.000000000000e+00 0.000000000000e+00 0.000000000000e+00
2.490000000000e+02 0.000000000000e+00 8.500000000000e+00 0.000000000000e+00 0.000000000000e+00 0.000000000000e+00
2.500000000000e+02 0.000000000000e+00 8.500000000000e+00 0.000000000000e+00 0.000000000000e+00 0.000000000000e+00
2.490000000000e+02 0.000000000000e+00 9.500000000000e+00 0.000000000000e+00 0.000000000000e+00 0.000000000000e+00
2.500000000000e+02 0.000000000000e+00 9.500000000000e+00 0.000000000000e+00 0.000000000000e+00 0.000000000000e+00
2.490000000000e+02 0.000000000000e+00 1.050000000000e+01 0.000000000000e+00 0.000000000000e+00 0.000000000000e+00
2.500000000000e+02 0.000000000000e+00 1.050000000000e+01 0.000000000000e+00 0.000000000000e+00 0.000000000000e+00
2.490000000000e+02 0.000000000000e+00 1.150000000000e+01 0.000000000000e+00 0.000000000000e+00 0.000000000000e+00
2.500000000000e+02 0.000000000000e+00 1.150000000000e+01 0.000000000000e+00 0.000000000000e+00 0.000000000000e+00
2.490000000000e+02 0.000000000000e+00 1.250000000000e+01 0.000000000000e+00 0.000000000000e+00 0.000000000000e+00
2.500000000000e+02 0.000000000000e+00 1.250000000000e+01 0.000000000000e+00 0.000000000000e+00 0.000000000000e+00
2.490000000000e+02 0.000000000000e+00 1.350000000000e+01 0.000000000000e+00 0.000000000000e+00 0.000000000000e+00
2.500000000000e+02 0.000000000000e+00 1.350000000000e+01 0.000000000000e+00 0.000000000000e+00 0.000000000000e+00
2.490000000000e+02 0.000000000000e+00 1.450000000000e+01 0.000000000000e+00 0.000000000000e+00 0.000000000000e+00
2.500000000000e+02 0.000000000000e+00 1.450000000000e+01 0.000000000000e+00 0.000000000000e+00 0.000000000000e+00
2.490000000000e+02 0.000000000000e+00 1.550000000000e+01 0.000000000000e+00 0.000000000000e+00 0.000000000000e+00
2.500000000000e+02 0.000000000000e+00 1.550000000000e+01 0.000000000000e+00 0.000000000000e+00 0.000000000000e+00
2.490000000000e+02 0.000000000000e+00 1.650000000000e+01 0.000000000000e+00 0.000000000000e+00 0.000000000000e+00
2.500000000000e+02 0.000000000000e+00 1.650000000000e+01 0.000000000000e+00 0.000000000000e+00 0.000000000000e+00
2.490000000000e+02 0.000000000000e+00 1.750000000000e+01 0.000000000000e+00 0.000000000000e+00 0.000000000000e+00
2.500000000000e+02 0.000000000000e+00 1.750000000000e+01 0.000000000000e+00 0.000000000000e+00 0.000000000000e+00
2.490000000000e+02 0.000000000000e+00 1.850000000000e+01 0.000000000000e+00 0.000000000000e+00 0.000000000000e+00
2.500000000000e+02 0.000000000000e+00 1.850000000000e+01 0.000000000000e+00 0.000000000000e+00 0.000000000000e+00
2.490000000000e+02 0.000000000000e+00 1.950000000000e+01 0.000000000000e+00 0.000000000000e+00 0.000000000000e+00
2.500000000000e+02 0.000000000000e+00 1.950000000000e+01 0.000000000000e+00 0.000000000000e+00 0.000000000000e+00
2.490000000000e+02 0.000000000000e+00 2.050000000000e+01 0.000000000000e+00 0.000000000000e+00 0.000000000000e+00
2.500000000000e+02 0.000000000000e+00 2.050000000000e+01 0.000000000000e+00 0.000000000000e+00 0.000000000000e+00
2.490000000000e+02 0.000000000000e+00 2.150000000000e+01 0.000000000000e+00 0.000000000000e+00 0.000000000000e+00
2.500000000000e+02 0.000000000000e+00 2.150000000000e+01 0.000000000000e+00 0.000000000000e+00 0.000000000000e+00
2.490000000000e+02 0.000000000000e+00 2.250000000000e+01 0.000000000000e+00 0.000000000000e+00 0.000000000000e+00
2.500000000000e+02 0.000000000000e+00 2.250000000000e+01 0.000000000000e+00 0.000000000000e+00 0.000000000000e+00
2.490000000000e+02 0.000000000000e+00 2.350000000000e+01 0.000000000000e+00 0.000000000000e+00 0.000000000000e+00
2.500000000000e+02 0.000000000000e+00 2.350000000000e+01 0.000000000000e+00 0.000000000000e+00 0.000000000000e+00
2.490000000000e+02 0.000000000000e+00 2.450000000000e+01 0.000000000000e+00 0.000000000000e+00 0.000000000000e+00
2.500000000000e+02 0.000000000000e+00 2.450000000000e+01 0.000000000000e+00 0.000000000000e+00 0.000000000000e+00
2.490000000000e+02 0.000000000000e+00 2.550000000000e+01 0.000000000000e+00 0.000000000000e+00 0.000000000000e+00
2.500000000000e+02 0.000000000000e+00 2.550000000000e+01 0.000000000000e+00 0.000000000000e+00 0.000000000000e+00
2.490000000000e+02 0.000000000000e+00 2.650000000000e+01 0.000000000000e+00 0.000000000000e+00 0.000000000000e+00
2.500000000000e+02 0.000000000000e+00 2.650000000000e+01 0.000000000000e+00 0.000000000000e+00 0.000000000000e+00
2.490000000000e+02 0.000000000000e+00 2.750000000000e+01 0.000000000000e+00 0.000000000000e+00 0.000000000000e+00
2.500000000000e+02 0.000000000000e+00 2.750000000000e+01 0.000000000000e+00 0.000000000000e+00 0.000000000000e+00
2.490000000000e+02 0.000000000000e+00 2.850000000000e+01 0.000000000000e+00 0.000000000000e+00 0.000000000000e+00
2.500000000000e+02 0.000000000000e+00 2.850000000000e+01 0.000000000000e+00 0.000000000000e+00 0.000000000000e+00
2.490000000000e+02 0.000000000000e+00 2.950000000000e+01 0.000000000000e+00 0.000000000000e+00 0.000000000000e+00
2.500000000000e+02 0.000000000000e+00 2.950000000000e+01 0.000000000000e+00 0.000000000000e+00 0.000000000000e+00
VARIABLES = "X","Y","Z",VELOCITY1_X,VELOCITY1_Y,VELOCITY1_Z
ZONE T="1.797693134862e+308s", 
2.490000000000e+02 0.000000000000e+00 5.000000000000e-01 3.740537932945e-07 -7.495083791993e-10 0.000000000000e+00
2.500000000000e+02 0.000000000000e+00 5.000000000000e-01 3.755527860834e-07 -7.495059361168e-10 0.000000000000e+00
2.490000000000e+02 0.000000000000e+00 1.500000000000e+00 7.159456617897e-09 -1.513400148313e-09 0.000000000000e+00
2.500000000000e+02 0.000000000000e+00 1.500000000000e+00 7.188147608825e-09 -1.513394336295e-09 0.000000000000e+00
2.490000000000e+02 0.000000000000e+00 2.500000000000e+00 1.097043702058e-09 -1.529944712191e-09 0.000000000000e+00
2.500000000000e+02 0.000000000000e+00 2.500000000000e+00 1.101440032360e-09 -1.529938831709e-09 0.000000000000e+00
2.490000000000e+02 0.000000000000e+00 3.500000000000e+00 1.683149067981e-08 -1.565869273586e-09 0.000000000000e+00
2.500000000000e+02 0.000000000000e+00 3.500000000000e+00 1.689894226608e-08 -1.565863282837e-09 0.000000000000e+00
2.490000000000e+02 0.000000000000e+00 4.500000000000e+00 4.107715720034e-09 -1.607828314350e-09 0.000000000000e+00
2.500000000000e+02 0.000000000000e+00 4.500000000000e+00 4.124177253824e-09 -1.607822151713e-09 0.000000000000e+00
2.490000000000e+02 0.000000000000e+00 5.500000000000e+00 2.772838693810e-07 -2.171672255772e-09 0.000000000000e+00
2.500000000000e+02 0.000000000000e+00 5.500000000000e+00 2.783950772347e-07 -2.171664443704e-09 0.000000000000e+00
2.490000000000e+02 0.000000000000e+00 6.500000000000e+00 8.768496598298e-10 -2.729069040041e-09 0.000000000000e+00
2.500000000000e+02 0.000000000000e+00 6.500000000000e+00 8.803636193559e-10 -2.729058853349e-09 0.000000000000e+00
2.490000000000e+02 0.000000000000e+00 7.500000000000e+00 2.242166380361e-10 -2.731275448611e-09 0.000000000000e+00
2.500000000000e+02 0.000000000000e+00 7.500000000000e+00 2.251152049274e-10 -2.731265251616e-09 0.000000000000e+00
2.490000000000e+02 0.000000000000e+00 8.500000000000e+00 6.132695833704e-09 -2.744014344588e-09 0.000000000000e+00
2.500000000000e+02 0.000000000000e+00 8.500000000000e+00 6.157274642373e-09 -2.744004129521e-09 0.000000000000e+00
2.490000000000e+02 0.000000000000e+00 9.500000000000e+00 2.165911246348e-07 -3.190341486776e-09 0.000000000000e+00
2.500000000000e+02 0.000000000000e+00 9.500000000000e+00 2.174591873902e-07 -3.190330658697e-09 0.000000000000e+00
2.490000000000e+02 0.000000000000e+00 1.050000000000e+01 1.271604247374e-08 -3.649879840914e-09 0.000000000000e+00
2.500000000000e+02 0.000000000000e+00 1.050000000000e+01 1.276700635419e-08 -3.649867961834e-09 0.000000000000e+00
2.490000000000e+02 0.000000000000e+00 1.150000000000e+01 6.578462682802e-09 -3.688545989016e-09 0.000000000000e+00
2.500000000000e+02 0.000000000000e+00 1.150000000000e+01 6.604828159652e-09 -3.688534040013e-09 0.000000000000e+00
2.490000000000e+02 0.000000000000e+00 1.250000000000e+01 5.079315494441e-11 -3.701830942346e-09 0.000000000000e+00
2.500000000000e+02 0.000000000000e+00 1.250000000000e+01 5.099673520237e-11 -3.701818961489e-09 0.000000000000e+00
2.490000000000e+02 0.000000000000e+00 1.350000000000e+01 1.572895284885e-07 -4.017244550133e-09 0.000000000000e+00
2.500000000000e+02 0.000000000000e+00 1.350000000000e+01 1.579201518603e-07 -4.017234365189e-09 0.000000000000e+00
2.490000000000e+02 0.000000000000e+00 1.450000000000e+01 5.861723526037e-09 -4.344313967608e-09 0.000000000000e+00
2.500000000000e+02 0.000000000000e+00 1.450000000000e+01 5.885225043983e-09 -4.344305413697e-09 0.000000000000e+00
2.490000000000e+02 0.000000000000e+00 1.550000000000e+01 3.068823145791e-09 -4.362216946901e-09 0.000000000000e+00
2.500000000000e+02 0.000000000000e+00 1.550000000000e+01 3.081127067086e-09 -4.362208492438e-09 0.000000000000e+00
2.490000000000e+02 0.000000000000e+00 1.650000000000e+01 1.248792028233e-08 -4.393403173859e-09 0.000000000000e+00
2.500000000000e+02 0.000000000000e+00 1.650000000000e+01 1.253798864513e-08 -4.393394883042e-09 0.000000000000e+00
2.490000000000e+02 0.000000000000e+00 1.750000000000e+01 4.697861199311e-09 -4.427855530751e-09 0.000000000000e+00
2.500000000000e+02 0.000000000000e+00 1.750000000000e+01 4.716696556781e-09 -4.427847433498e-09 0.000000000000e+00
2.490000000000e+02 0.000000000000e+00 1.850000000000e+01 9.033630363602e-10 -4.439084342082e-09 0.000000000000e+00
2.500000000000e+02 0.000000000000e+00 1.850000000000e+01 9.069849463777e-10 -4.439076313811e-09 0.000000000000e+00
2.490000000000e+02 0.000000000000e+00 1.950000000000e+01 3.091440221536e-09 -4.447092774235e-09 0.000000000000e+00
2.500000000000e+02 0.000000000000e+00 1.950000000000e+01 3.103835090258e-09 -4.447084785294e-09 0.000000000000e+00
2.490000000000e+02 0.000000000000e+00 2.050000000000e+01 4.089527576694e-09 -4.461488684608e-09 0.000000000000e+00
2.500000000000e+02 0.000000000000e+00 2.050000000000e+01 4.105924251517e-09 -4.461480777995e-09 0.000000000000e+00
2.490000000000e+02 0.000000000000e+00 2.150000000000e+01 1.594304248034e-08 -4.501648514304e-09 0.000000000000e+00
2.500000000000e+02 0.000000000000e+00 2.150000000000e+01 1.600696512035e-08 -4.501640870948e-09 0.000000000000e+00
2.490000000000e+02 0.000000000000e+00 2.250000000000e+01 1.343507882730e-07 -4.802946341005e-09 0.000000000000e+00
2.500000000000e+02 0.000000000000e+00 2.250000000000e+01 1.348894600267e-07 -4.802940404709e-09 0.000000000000e+00
2.490000000000e+02 0.000000000000e+00 2.350000000000e+01 4.018979875816e-08 -5.152857051176e-09 0.000000000000e+00
2.500000000000e+02 0.000000000000e+00 2.350000000000e+01 4.035093746897e-08 -5.152853227874e-09 0.000000000000e+00
2.490000000000e+02 0.000000000000e+00 2.450000000000e+01 8.075219363258e-10 -5.235046555867e-09 0.000000000000e+00
2.500000000000e+02 0.000000000000e+00 2.450000000000e+01 8.107596512797e-10 -5.235043282975e-09 0.000000000000e+00
2.490000000000e+02 0.000000000000e+00 2.550000000000e+01 8.860044786259e-08 -5.414285623605e-09 0.000000000000e+00
2.500000000000e+02 0.000000000000e+00 2.550000000000e+01 8.895568855584e-08 -5.414283368972e-09 0.000000000000e+00
2.490000000000e+02 0.000000000000e+00 2.650000000000e+01 3.743869354822e-10 -5.592659641367e-09 0.000000000000e+00
2.500000000000e+02 0.000000000000e+00 2.650000000000e+01 3.758880283851e-10 -5.592658546644e-09 0.000000000000e+00
2.490000000000e+02 0.000000000000e+00 2.750000000000e+01 1.893521738364e-08 -5.631370435176e-09 0.000000000000e+00
2.500000000000e+02 0.000000000000e+00 2.750000000000e+01 1.901113785552e-08 -5.631369573168e-09 0.000000000000e+00
2.490000000000e+02 0.000000000000e+00 2.850000000000e+01 2.458480722880e-08 -5.718617690028e-09 0.000000000000e+00
2.500000000000e+02 0.000000000000e+00 2.850000000000e+01 2.468337967831e-08 -5.718617398118e-09 0.000000000000e+00
2.490000000000e+02 0.000000000000e+00 2.950000000000e+01 4.253913710358e-10 -5.768757508502e-09 0.000000000000e+00
2.500000000000e+02 0.000000000000e+00 2.950000000000e+01 4.270969727012e-10 -5.768757503851e-09 0.000000000000e+00
VARIABLES = "X","Y","Z",VELOCITY1_X,VELOCITY1_Y,VELOCITY1_Z
ZONE T="0.000000000000e+00s", 
2.490000000000e+02 0.000000000000e+00 5.000000000000e-01 0.000000000000e+00 0.000000000000e+00 0.000000000000e+00
2.500000000000e+02 0.000000000000e+00 5.000000000000e-01 0.000000000000e+00 0.000000000000e+00 0.000000000000e+00
2.490000000000e+02 0.000000000000e+00 1.500000000000e+00 0.000000000000e+00 0.000000000000e+00 0.000000000000e+00
2.500000000000e+02 0.000000000000e+00 1.500000000000e+00 0.000000000000e+00 0.000000000000e+00 0.000000000000e+00
2.490000000000e+02 0.000000000000e+00 2.500000000000e+00 0.000000000000e+00 0.000000000000e+00 0.000000000000e+00
2.500000000000e+02 0.000000000000e+00 2.500000000000e+00 0.000000000000e+00 0.000000000000e+00 0.000000000000e+00
2.490000000000e+02 0.000000000000e+00 3.500000000000e+00 0.000000000000e+00 0.000000000000e+00 0.000000000000e+00
2.500000000000e+02 0.000000000000e+00 3.500000000000e+00 0.000000000000e+00 0.000000000000e+00 0.000000000000e+00
2.490000000000e+02 0.000000000000e+00 4.500000000000e+00 0.000000000000e+00 0.000000000000e+00 0.000000000000e+00
2.500000000000e+02 0.000000000000e+00 4.500000000000e+00 0.000000000000e+00 0.000000000000e+00 0.000000000000e+00
2.490000000000e+02 0.000000000000e+00 5.500000000000e+00 0.000000000000e+00 0.000000000000e+00 0.000000000000e+00
2.500000000000e+02 0.000000000000e+00 5.500000000000e+00 0.000000000000e+00 0.000000000000e+00 0.000000000000e+00
2.490000000000e+02 0.000000000000e+00 6.500000000000e+00 0.000000000000e+00 0.000000000000e+00 0.000000000000e+00
2.500000000000e+02 0.000000000000e+00 6.500000000000e+00 0.000000000000e+00 0.000000000000e+00 0.000000000000e+00
2.490000000000e+02 0.000000000000e+00 7.500000000000e+00 0.000000000000e+00 0.000000000000e+00 0.000000000000e+00
2.500000000000e+02 0.000000000000e+00 7.500000000000e+00 0.000000000000e+00 0.000000000000e+00 0.000000000000e+00
2.490000000000e+02 0.000000000000e+00 8.500000000000e+00 0.000000000000e+00 0.000000000000e+00 0.000000000000e+00
2.500000000000e+02 0.000000000000e+00 8.500000000000e+00 0.000000000000e+00 0.000000000000e+00 0.000000000000e+00
2.490000000000e+02 0.000000000000e+00 9.500000000000e+00 0.000000000000e+00 0.000000000000e+00 0.000000000000e+00
2.500000000000e+02 0.000000000000e+00 9.500000000000e+00 0.000000000000e+00 0.000000000000e+00 0.000000000000e+00
2.490000000000e+02 0.000000000000e+00 1.050000000000e+01 0.000000000000e+00 0.000000000000e+00 0.000000000000e+00
2.500000000000e+02 0.000000000000e+00 1.050000000000e+01 0.000000000000e+00 0.000000000000e+00 0.000000000000e+00
2.490000000000e+02 0.000000000000e+00 1.150000000000e+01 0.000000000000e+00 0.000000000000e+00 0.000000000000e+00
2.500000000000e+02 0.000000000000e+00 1.150000000000e+01 0.000000000000e+00 0.000000000000e+00 0.000000000000e+00
2.490000000000e+02 0.000000000000e+00 1.250000000000e+01 0.000000000000e+00 0.000000000000e+00 0.000000000000e+00
2.500000000000e+02 0.000000000000e+00 1.250000000000e+01 0.000000000000e+00 0.000000000000e+00 0.000000000000e+00
2.490000000000e+02 0.000000000000e+00 1.350000000000e+01 0.000000000000e+00 0.000000000000e+00 0.000000000000e+00
2.500000000000e+02 0.000000000000e+00 1.350000000000e+01 0.000000000000e+00 0.000000000000e+00 0.000000000000e+00
2.490000000000e+02 0.000000000000e+00 1.450000000000e+01 0.000000000000e+00 0.000000000000e+00 0.000000000000e+00
2.500000000000e+02 0.000000000000e+00 1.450000000000e+01 0.000000000000e+00 0.000000000000e+00 0.000000000000e+00
2.490000000000e+02 0.000000000000e+00 1.550000000000e+01 0.000000000000e+00 0.000000000000e+00 0.000000000000e+00
2.500000000000e+02 0.000000000000e+00 1.550000000000e+01 0.000000000000e+00 0.000000000000e+00 0.000000000000e+00
2.490000000000e+02 0.000000000000e+00 1.650000000000e+01 0.000000000000e+00 0.000000000000e+00 0.000000000000e+00
2.500000000000e+02 0.000000000000e+00 1.650000000000e+01 0.000000000000e+00 0.000000000000e+00 0.000000000000e+00
2.490000000000e+02 0.000000000000e+00 1.750000000000e+01 0.000000000000e+00 0.000000000000e+00 0.000000000000e+00
2.500000000000e+02 0.000000000000e+00 1.750000000000e+01 0.000000000000e+00 0.000000000000e+00 0.000000000000e+00
2.490000000000e+02 0.000000000000e+00 1.850000000000e+01 0.000000000000e+00 0.000000000000e+00 0.000000000000e+00
2.500000000000e+02 0.000000000000e+00 1.850000000000e+01 0.000000000000e+00 0.000000000000e+00 0.000000000000e+00
2.490000000000e+02 0.000000000000e+00 1.950000000000e+01 0.000000000000e+00 0.000000000000e+00 0.000000000000e+00
2.500000000000e+02 0.000000000000e+00 1.950000000000e+01 0.000000000000e+00 0.000000000000e+00 0.000000000000e+00
2.490000000000e+02 0.000000000000e+00 2.050000000000e+01 0.000000000000e+00 0.000000000000e+00 0.000000000000e+00
2.500000000000e+02 0.000000000000e+00 2.050000000000e+01 0.000000000000e+00 0.000000000000e+00 0.000000000000e+00
2.490000000000e+02 0.000000000000e+00 2.150000000000e+01 0.000000000000e+00 0.000000000000e+00 0.000000000000e+00
2.500000000000e+02 0.000000000000e+00 2.150000000000e+01 0.000000000000e+00 0.000000000000e+00 0.000000000000e+00
2.490000000000e+02 0.000000000000e+00 2.250000000000e+01 0.000000000000e+00 0.000000000000e+00 0.000000000000e+00
2.500000000000e+02 0.000000000000e+00 2.250000000000e+01 0.000000000000e+00 0.000000000000e+00 0.000000000000e+00
2.490000000000e+02 0.000000000000e+00 2.350000000000e+01 0.000000000000e+00 0.000000000000e+00 0.000000000000e+00
2.500000000000e+02 0.000000000000e+00 2.350000000000e+01 0.000000000000e+00 0.000000000000e+00 0.000000000000e+00
2.490000000000e+02 0.000000000000e+00 2.450000000000e+01 0.000000000000e+00 0.000000000000e+00 0.000000000000e+00
2.500000000000e+02 0.000000000000e+00 2.450000000000e+01 0.000000000000e+00 0.000000000000e+00 0.000000000000e+00
2.490000000000e+02 0.000000000000e+00 2.550000000000e+01 0.000000000000e+00 0.000000000000e+00 0.000000000000e+00
2.500000000000e+02 0.000000000000e+00 2.550000000000e+01 0.000000000000e+00 0.000000000000e+00 0.000000000000e+00
2.490000000000e+02 0.000000000000e+00 2.650000000000e+01 0.000000000000e+00 0.000000000000e+00 0.000000000000e+00
2.500000000000e+02 0.000000000000e+00 2.650000000000e+01 0.000000000000e+00 0.000000000000e+00 0.000000000000e+00
2.490000000000e+02 0.000000000000e+00 2.750000000000e+01 0.000000000000e+00 0.000000000000e+00 0.000000000000e+00
2.500000000000e+02 0.000000000000e+00 2.750000000000e+01 0.000000000000e+00 0.000000000000e+00 0.000000000000e+00
2.490000000000e+02 0.000000000000e+00 2.850000000000e+01 0.000000000000e+00 0.000000000000e+00 0.000000000000e+00
2.500000000000e+02 0.000000000000e+00 2.850000000000e+01 0.000000000000e+00 0.000000000000e+00 0.000000000000e+00
2.490000000000e+02 0.000000000000e+00 2.950000000000e+01 0.000000000000e+00 0.000000000000e+00 0.000000000000e+00
2.500000000000e+02 0.000000000000e+00 2.950000000000e+01 0.000000000000e+00 0.000000000000e+00 0.000000000000e+00
VARIABLES = "X","Y","Z",VELOCITY1_X,VELOCITY1_Y,VELOCITY1_Z
ZONE T="8.640000000000e+04s", 
2.490000000000e+02 0.000000000000e+00 5.000000000000e-01 3.740570833031e-07 -7.472908457817e-10 0.000000000000e+00
2.500000000000e+02 0.000000000000e+00 5.000000000000e-01 3.755560738448e-07 -7.472884797985e-10 0.000000000000e+00
2.490000000000e+02 0.000000000000e+00 1.500000000000e+00 7.159519487100e-09 -1.506623831479e-09 0.000000000000e+00
2.500000000000e+02 0.000000000000e+00 1.500000000000e+00 7.188210438323e-09 -1.506618911979e-09 0.000000000000e+00
2.490000000000e+02 0.000000000000e+00 2.500000000000e+00 1.097053142259e-09 -1.518731897430e-09 0.000000000000e+00
2.500000000000e+02 0.000000000000e+00 2.500000000000e+00 1.101449466433e-09 -1.518726655003e-09 0.000000000000e+00
2.490000000000e+02 0.000000000000e+00 3.500000000000e+00 1.683162678451e-08 -1.549994141372e-09 0.000000000000e+00
2.500000000000e+02 0.000000000000e+00 3.500000000000e+00 1.689907828901e-08 -1.549988540263e-09 0.000000000000e+00
2.490000000000e+02 0.000000000000e+00 4.500000000000e+00 4.107748831220e-09 -1.587182468574e-09 0.000000000000e+00
2.500000000000e+02 0.000000000000e+00 4.500000000000e+00 4.124210345246e-09 -1.587176490669e-09 0.000000000000e+00
2.490000000000e+02 0.000000000000e+00 5.500000000000e+00 2.772860933784e-07 -2.146122764793e-09 0.000000000000e+00
2.500000000000e+02 0.000000000000e+00 5.500000000000e+00 2.783973001966e-07 -2.146114995590e-09 0.000000000000e+00
2.490000000000e+02 0.000000000000e+00 6.500000000000e+00 8.768566213396e-10 -2.698296857975e-09 0.000000000000e+00
2.500000000000e+02 0.000000000000e+00 6.500000000000e+00 8.803705776394e-10 -2.698287303419e-09 0.000000000000e+00
2.490000000000e+02 0.000000000000e+00 7.500000000000e+00 2.242182285757e-10 -2.693776390791e-09 0.000000000000e+00
2.500000000000e+02 0.000000000000e+00 7.500000000000e+00 2.251167937618e-10 -2.693766603888e-09 0.000000000000e+00
2.490000000000e+02 0.000000000000e+00 8.500000000000e+00 6.132729352675e-09 -2.696001066988e-09 0.000000000000e+00
2.500000000000e+02 0.000000000000e+00 8.500000000000e+00 6.157308160623e-09 -2.695991080622e-09 0.000000000000e+00
2.490000000000e+02 0.000000000000e+00 9.500000000000e+00 2.165923012684e-07 -3.130739720186e-09 0.000000000000e+00
2.500000000000e+02 0.000000000000e+00 9.500000000000e+00 2.174603638867e-07 -3.130729065089e-09 0.000000000000e+00
2.490000000000e+02 0.000000000000e+00 1.050000000000e+01 1.271611148358e-08 -3.578556250862e-09 0.000000000000e+00
2.500000000000e+02 0.000000000000e+00 1.050000000000e+01 1.276707536208e-08 -3.578544906759e-09 0.000000000000e+00
2.490000000000e+02 0.000000000000e+00 1.150000000000e+01 6.578498094490e-09 -3.605381180781e-09 0.000000000000e+00
2.500000000000e+02 0.000000000000e+00 1.150000000000e+01 6.604863569846e-09 -3.605369623957e-09 0.000000000000e+00
2.490000000000e+02 0.000000000000e+00 1.250000000000e+01 5.079339554642e-11 -3.595378773236e-09 0.000000000000e+00
2.500000000000e+02 0.000000000000e+00 1.250000000000e+01 5.099697572129e-11 -3.595367059713e-09 0.000000000000e+00
2.490000000000e+02 0.000000000000e+00 1.350000000000e+01 1.572895386849e-07 -3.842831389766e-09 0.000000000000e+00
2.500000000000e+02 0.000000000000e+00 1.350000000000e+01 1.579201644905e-07 -3.842821352693e-09 0.000000000000e+00
2.490000000000e+02 0.000000000000e+00 1.450000000000e+01 5.861723883246e-09 -4.090530002165e-09 0.000000000000e+00
2.500000000000e+02 0.000000000000e+00 1.450000000000e+01 5.885225482872e-09 -4.090521616974e-09 0.000000000000e+00
2.490000000000e+02 0.000000000000e+00 1.550000000000e+01 3.068823236207e-09 -4.027559600252e-09 0.000000000000e+00
2.500000000000e+02 0.000000000000e+00 1.550000000000e+01 3.081127199617e-09 -4.027551307235e-09 0.000000000000e+00
2.490000000000e+02 0.000000000000e+00 1.650000000000e+01 1.248792004688e-08 -3.975142733364e-09 0.000000000000e+00
2.500000000000e+02 0.000000000000e+00 1.650000000000e+01 1.253798859264e-08 -3.975134612699e-09 0.000000000000e+00
2.490000000000e+02 0.000000000000e+00 1.750000000000e+01 4.697861035475e-09 -3.924127884531e-09 0.000000000000e+00
2.500000000000e+02 0.000000000000e+00 1.750000000000e+01 4.716696467928e-09 -3.924119945063e-09 0.000000000000e+00
2.490000000000e+02 0.000000000000e+00 1.850000000000e+01 9.033629607607e-10 -3.843923108906e-09 0.000000000000e+00
2.500000000000e+02 0.000000000000e+00 1.850000000000e+01 9.069848858760e-10 -3.843915232201e-09 0.000000000000e+00
2.490000000000e+02 0.000000000000e+00 1.950000000000e+01 3.091439484306e-09 -3.744694507080e-09 0.000000000000e+00
2.500000000000e+02 0.000000000000e+00 1.950000000000e+01 3.103834402211e-09 -3.744686682843e-09 0.000000000000e+00
2.490000000000e+02 0.000000000000e+00 2.050000000000e+01 4.089526387934e-09 -3.642445225915e-09 0.000000000000e+00
2.500000000000e+02 0.000000000000e+00 2.050000000000e+01 4.105923135054e-09 -3.642437492572e-09 0.000000000000e+00
2.490000000000e+02 0.000000000000e+00 2.150000000000e+01 1.594303722257e-08 -3.560173433819e-09 0.000000000000e+00
2.500000000000e+02 0.000000000000e+00 2.150000000000e+01 1.600696020354e-08 -3.560165941988e-09 0.000000000000e+00
2.490000000000e+02 0.000000000000e+00 2.250000000000e+01 1.343507428394e-07 -3.736675300585e-09 0.000000000000e+00
2.500000000000e+02 0.000000000000e+00 2.250000000000e+01 1.348894172210e-07 -3.736669570181e-09 0.000000000000e+00
2.490000000000e+02 0.000000000000e+00 2.350000000000e+01 4.018978510403e-08 -3.961147515248e-09 0.000000000000e+00
2.500000000000e+02 0.000000000000e+00 2.350000000000e+01 4.035092459275e-08 -3.961143764406e-09 0.000000000000e+00
2.490000000000e+02 0.000000000000e+00 2.450000000000e+01 8.075216610156e-10 -3.908483561895e-09 0.000000000000e+00
2.500000000000e+02 0.000000000000e+00 2.450000000000e+01 8.107593924500e-10 -3.908480285405e-09 0.000000000000e+00
2.490000000000e+02 0.000000000000e+00 2.550000000000e+01 8.860041802409e-08 -3.917653524039e-09 0.000000000000e+00
2.500000000000e+02 0.000000000000e+00 2.550000000000e+01 8.895566032744e-08 -3.917651309342e-09 0.000000000000e+00
2.490000000000e+02 0.000000000000e+00 2.650000000000e+01 3.743868133652e-10 -3.892690105444e-09 0.000000000000e+00
2.500000000000e+02 0.000000000000e+00 2.650000000000e+01 3.758879133157e-10 -3.892688973909e-09 0.000000000000e+00
2.490000000000e+02 0.000000000000e+00 2.750000000000e+01 1.893521287173e-08 -3.630759637235e-09 0.000000000000e+00
2.500000000000e+02 0.000000000000e+00 2.750000000000e+01 1.901113362424e-08 -3.630758742308e-09 0.000000000000e+00
2.490000000000e+02 0.000000000000e+00 2.850000000000e+01 2.458480141699e-08 -3.390449178401e-09 0.000000000000e+00
2.500000000000e+02 0.000000000000e+00 2.850000000000e+01 2.468337420503e-08 -3.390448836784e-09 0.000000000000e+00
2.490000000000e+02 0.000000000000e+00 2.950000000000e+01 4.253912718080e-10 -3.076776625880e-09 0.000000000000e+00
2.500000000000e+02 0.000000000000e+00 2.950000000000e+01 4.270968785400e-10 -3.076776616978e-09 0.000000000000e+00
VARIABLES = "X","Y","Z",VELOCITY1_X,VELOCITY1_Y,VELOCITY1_Z
ZONE T="1.728000000000e+05s", 
2.490000000000e+02 0.000000000000e+00 5.000000000000e-01 3.740593736700e-07 -7.460555664334e-10 0.000000000000e+00
2.500000000000e+02 0.000000000000e+00 5.000000000000e-01 3.755583643087e-07 -7.460531281697e-10 0.000000000000e+00
2.490000000000e+02 0.000000000000e+00 1.500000000000e+00 7.159563329452e-09 -1.503102972634e-09 0.000000000000e+00
2.500000000000e+02 0.000000000000e+00 1.500000000000e+00 7.188254281759e-09 -1.503098027401e-09 0.000000000000e+00
2.490000000000e+02 0.000000000000e+00 2.500000000000e+00 1.097059857878e-09 -1.512664386619e-09 0.000000000000e+00
2.500000000000e+02 0.000000000000e+00 2.500000000000e+00 1.101456182380e-09 -1.512659195309e-09 0.000000000000e+00
2.490000000000e+02 0.000000000000e+00 3.500000000000e+00 1.683172911072e-08 -1.541481725361e-09 0.000000000000e+00
2.500000000000e+02 0.000000000000e+00 3.500000000000e+00 1.689918061628e-08 -1.541476238087e-09 0.000000000000e+00
2.490000000000e+02 0.000000000000e+00 4.500000000000e+00 4.107773759484e-09 -1.576282586672e-09 0.000000000000e+00
2.500000000000e+02 0.000000000000e+00 4.500000000000e+00 4.124235274542e-09 -1.576276782387e-09 0.000000000000e+00
2.490000000000e+02 0.000000000000e+00 5.500000000000e+00 2.772877657052e-07 -2.132917187516e-09 0.000000000000e+00
2.500000000000e+02 0.000000000000e+00 5.500000000000e+00 2.783989726252e-07 -2.132909575482e-09 0.000000000000e+00
2.490000000000e+02 0.000000000000e+00 6.500000000000e+00 8.768618895123e-10 -2.683045114313e-09 0.000000000000e+00
2.500000000000e+02 0.000000000000e+00 6.500000000000e+00 8.803758459815e-10 -2.683035735146e-09 0.000000000000e+00
2.490000000000e+02 0.000000000000e+00 7.500000000000e+00 2.242195110387e-10 -2.677157614450e-09 0.000000000000e+00
2.500000000000e+02 0.000000000000e+00 7.500000000000e+00 2.251180763327e-10 -2.677148047785e-09 0.000000000000e+00
2.490000000000e+02 0.000000000000e+00 8.500000000000e+00 6.132759056153e-09 -2.680118933053e-09 0.000000000000e+00