 TITLE = "Profiles along polylines"
 VARIABLES = "DIST" "HEAD" "VELOCITY_X1" "VELOCITY_Y1" "VELOCITY_Z1" 
 ZONE T="TIME=0.000000000000e+00"
0.000000000000e+00 3.040360898072e+01 0.000000000000e+00 0.000000000000e+00 0.000000000000e+00 
1.000000000000e+00 3.040360953070e+01 0.000000000000e+00 0.000000000000e+00 0.000000000000e+00 
2.000000000000e+00 3.040366754622e+01 0.000000000000e+00 0.000000000000e+00 0.000000000000e+00 
3.000000000000e+00 3.040405030285e+01 0.000000000000e+00 0.000000000000e+00 0.000000000000e+00 
4.000000000000e+00 3.040407583628e+01 0.000000000000e+00 0.000000000000e+00 0.000000000000e+00 
5.000000000000e+00 3.040418326432e+01 0.000000000000e+00 0.000000000000e+00 0.000000000000e+00 
6.000000000000e+00 3.040418541409e+01 0.000000000000e+00 0.000000000000e+00 0.000000000000e+00 
7.000000000000e+00 3.040503973559e+01 0.000000000000e+00 0.000000000000e+00 0.000000000000e+00 
8.000000000000e+00 3.040838350651e+01 0.000000000000e+00 0.000000000000e+00 0.000000000000e+00 
9.000000000000e+00 3.040850633418e+01 0.000000000000e+00 0.000000000000e+00 0.000000000000e+00 
1.000000000000e+01 3.040851037908e+01 0.000000000000e+00 0.000000000000e+00 0.000000000000e+00 
1.100000000000e+01 3.040858921892e+01 0.000000000000e+00 0.000000000000e+00 0.000000000000e+00 
1.200000000000e+01 3.040874323239e+01 0.000000000000e+00 0.000000000000e+00 0.000000000000e+00 
1.300000000000e+01 3.042876279060e+01 0.000000000000e+00 0.000000000000e+00 0.000000000000e+00 
1.400000000000e+01 3.042876981372e+01 0.000000000000e+00 0.000000000000e+00 0.000000000000e+00 
1.500000000000e+01 3.042897376315e+01 0.000000000000e+00 0.000000000000e+00 0.000000000000e+00 
1.600000000000e+01 3.042936494545e+01 0.000000000000e+00 0.000000000000e+00 0.000000000000e+00 
1.700000000000e+01 3.042946176978e+01 0.000000000000e+00 0.000000000000e+00 0.000000000000e+00 
1.800000000000e+01 3.042972118680e+01 0.000000000000e+00 0.000000000000e+00 0.000000000000e+00 
1.900000000000e+01 3.043107371881e+01 0.000000000000e+00 0.000000000000e+00 0.000000000000e+00 
2.000000000000e+01 3.043146967108e+01 0.000000000000e+00 0.000000000000e+00 0.000000000000e+00 
2.100000000000e+01 3.043176996654e+01 0.000000000000e+00 0.000000000000e+00 0.000000000000e+00 
2.200000000000e+01 3.043184769512e+01 0.000000000000e+00 0.000000000000e+00 0.000000000000e+00 
2.300000000000e+01 3.043185754226e+01 0.000000000000e+00 0.000000000000e+00 0.000000000000e+00 
2.400000000000e+01 3.043189288014e+01 0.000000000000e+00 0.000000000000e+00 0.000000000000e+00 
2.500000000000e+01 3.043367991056e+01 0.000000000000e+00 0.000000000000e+00 0.000000000000e+00 
2.600000000000e+01 3.043369676031e+01 0.000000000000e+00 0.000000000000e+00 0.000000000000e+00 
2.700000000000e+01 3.043781677567e+01 0.000000000000e+00 0.000000000000e+00 0.000000000000e+00 
2.800000000000e+01 3.043789880514e+01 0.000000000000e+00 0.000000000000e+00 0.000000000000e+00 
2.900000000000e+01 3.043796297084e+01 0.000000000000e+00 0.000000000000e+00 0.000000000000e+00 
3.000000000000e+01 3.044170409197e+01 0.000000000000e+00 0.000000000000e+00 0.000000000000e+00 
 TITLE = "Profiles along polylines"
 VARIABLES = "DIST" "HEAD" "VELOCITY_X1" "VELOCITY_Y1" "VELOCITY_Z1" 
 ZONE T="TIME=8.640000000000e+04"
0.000000000000e+00 3.040357102462e+01 7.490458159152e-07 -7.437590219686e-10 0.000000000000e+00 
1.000000000000e+00 3.040357157297e+01 3.816913641390e-07 -1.121616020591e-09 0.000000000000e+00 
2.000000000000e+00 3.040362933238e+01 8.266902042000e-09 -1.505469041097e-09 0.000000000000e+00 
3.000000000000e+00 3.040400929328e+01 1.795171848827e-08 -1.526997602742e-09 0.000000000000e+00 
4.000000000000e+00 3.040403456751e+01 2.096633000023e-08 -1.561012839758e-09 0.000000000000e+00 
5.000000000000e+00 3.040414061125e+01 2.817586802220e-07 -1.857711101990e-09 0.000000000000e+00 
6.000000000000e+00 3.040414273562e+01 2.785236525032e-07 -2.410773856581e-09 0.000000000000e+00 
7.000000000000e+00 3.040498740697e+01 1.102591217543e-09 -2.683340307395e-09 0.000000000000e+00 
8.000000000000e+00 3.040828512481e+01 6.367496467638e-09 -2.682144436146e-09 0.000000000000e+00 
9.000000000000e+00 3.040840579467e+01 2.230967121866e-07 -2.900097422484e-09 0.000000000000e+00 
1.000000000000e+01 3.040840976370e+01 2.296911547783e-07 -3.340358729009e-09 0.000000000000e+00 
1.100000000000e+01 3.040848705821e+01 1.932693667146e-08 -3.577110483611e-09 0.000000000000e+00 
1.200000000000e+01 3.040863758728e+01 6.640480532420e-09 -3.585443617505e-09 0.000000000000e+00 
1.300000000000e+01 3.042807929481e+01 1.578396157752e-07 -3.705198101013e-09 0.000000000000e+00 
1.400000000000e+01 3.042808601209e+01 1.636690516214e-07 -3.954922316650e-09 0.000000000000e+00 
1.500000000000e+01 3.042827801922e+01 8.958977884198e-09 -4.048440605241e-09 0.000000000000e+00 
1.600000000000e+01 3.042863912045e+01 1.560653371662e-08 -3.990911929624e-09 0.000000000000e+00 
1.700000000000e+01 3.042872670564e+01 1.724085631455e-08 -3.939419299186e-09 0.000000000000e+00 
1.800000000000e+01 3.042895654412e+01 5.619239067594e-09 -3.873964917782e-09 0.000000000000e+00 
1.900000000000e+01 3.043012733268e+01 4.007876029482e-09 -3.784314548851e-09 0.000000000000e+00 
2.000000000000e+01 3.043046060687e+01 7.204578434492e-09 -3.683656366212e-09 0.000000000000e+00 
2.100000000000e+01 3.043070565260e+01 2.009866752866e-08 -3.591597162441e-09 0.000000000000e+00 
2.200000000000e+01 3.043076709061e+01 1.507901380845e-07 -3.639985116805e-09 0.000000000000e+00 
2.300000000000e+01 3.043077474833e+01 1.751170085180e-07 -3.842902093735e-09 0.000000000000e+00 
2.400000000000e+01 3.043080190614e+01 4.113274059257e-08 -3.930418639456e-09 0.000000000000e+00 
2.500000000000e+01 3.043213575004e+01 8.970557058618e-08 -3.909660665115e-09 0.000000000000e+00 
2.600000000000e+01 3.043214793980e+01 8.927100680504e-08 -3.903125978837e-09 0.000000000000e+00 
2.700000000000e+01 3.043501531279e+01 1.937423642698e-08 -3.760507859102e-09 0.000000000000e+00 
2.800000000000e+01 3.043506819482e+01 4.366570370086e-08 -3.509873819119e-09 0.000000000000e+00 
2.900000000000e+01 3.043510623553e+01 2.509391971912e-08 -3.233413005667e-09 0.000000000000e+00 
3.000000000000e+01 3.043710156705e+01 8.536307969848e-10 -3.076770327108e-09 0.000000000000e+00 
 ZONE T="TIME=1.728000000000e+05"
0.000000000000e+00 3.040351077585e+01 7.490461442722e-07 -7.425222008296e-10 0.000000000000e+00 
1.000000000000e+00 3.040351132329e+01 3.816915314898e-07 -1.119239257239e-09 0.000000000000e+00 
2.000000000000e+00 3.040356894724e+01 8.266905703398e-09 -1.500683094976e-09 0.000000000000e+00 
3.000000000000e+00 3.040394738595e+01 1.795172665639e-08 -1.519723138964e-09 0.000000000000e+00 
4.000000000000e+00 3.040397252101e+01 2.096633953683e-08 -1.551328353798e-09 0.000000000000e+00 
5.000000000000e+00 3.040407783461e+01 2.817588071655e-07 -1.845683929528e-09 0.000000000000e+00 
6.000000000000e+00 3.040407994587e+01 2.785237779973e-07 -2.396573335087e-09 0.000000000000e+00 
7.000000000000e+00 3.040491982968e+01 1.102591707442e-09 -2.667436748331e-09 0.000000000000e+00 
8.000000000000e+00 3.040819714765e+01 6.367498770430e-09 -2.665928088262e-09 0.000000000000e+00 
9.000000000000e+00 3.040831710482e+01 2.230967919013e-07 -2.884930832696e-09 0.000000000000e+00 
1.000000000000e+01 3.040832105540e+01 2.296912368248e-07 -3.326616103549e-09 0.000000000000e+00 
1.100000000000e+01 3.040839806796e+01 1.932694355151e-08 -3.564892312086e-09 0.000000000000e+00 
1.200000000000e+01 3.040854811755e+01 6.640482873927e-09 -3.580577182068e-09 0.000000000000e+00 
1.300000000000e+01 3.042799907727e+01 1.578395870973e-07 -3.736154084976e-09 0.000000000000e+00 
1.400000000000e+01 3.042800590014e+01 1.636690218508e-07 -4.050230637496e-09 0.000000000000e+00 
1.500000000000e+01 3.042820404457e+01 8.958976208733e-09 -4.215122688854e-09 0.000000000000e+00 
1.600000000000e+01 3.042858339007e+01 1.560653066264e-08 -4.232328626601e-09 0.000000000000e+00 
1.700000000000e+01 3.042867715795e+01 1.724085290800e-08 -4.259308041101e-09 0.000000000000e+00 
1.800000000000e+01 3.042892813035e+01 5.619237932067e-09 -4.279060364056e-09 0.000000000000e+00 
1.900000000000e+01 3.043023642790e+01 4.007875141020e-09 -4.293701410484e-09 0.000000000000e+00 
2.000000000000e+01 3.043062043150e+01 7.204576804371e-09 -4.319679536500e-09 0.000000000000e+00 
2.100000000000e+01 3.043091293801e+01 2.009866292955e-08 -4.368056729327e-09 0.000000000000e+00 
2.200000000000e+01 3.043098907285e+01 1.507901035106e-07 -4.564461159010e-09 0.000000000000e+00 
2.300000000000e+01 3.043099878310e+01 1.751169683533e-07 -4.918231247920e-09 0.000000000000e+00 
2.400000000000e+01 3.043103384203e+01 4.113273114962e-08 -5.166605137969e-09 0.000000000000e+00 
2.500000000000e+01 3.043281908085e+01 8.970554923395e-08 -5.351244270253e-09 0.000000000000e+00 
2.600000000000e+01 3.043283613370e+01 8.927098554780e-08 -5.619724741262e-09 0.000000000000e+00 
2.700000000000e+01 3.043708242943e+01 1.937423154499e-08 -5.888830625843e-09 0.000000000000e+00 
2.800000000000e+01 3.043717006364e+01 4.366569269035e-08 -6.180576001177e-09 0.000000000000e+00 
2.900000000000e+01 3.043724127555e+01 2.509391338863e-08 -6.517244698457e-09 0.000000000000e+00 
3.000000000000e+01 3.044157875947e+01 8.536305793479e-10 -6.688333105308e-09 0.000000000000e+00 
 ZONE T="TIME=2.592000000000e+05"
0.000000000000e+00 3.040342868234e+01 7.490455263196e-07 -7.411885626923e-10 0.000000000000e+00 
1.000000000000e+00 3.040342922880e+01 3.816912166962e-07 -1.116493849296e-09 0.000000000000e+00 
2.000000000000e+00 3.040348669262e+01 8.266899031151e-09 -1.495256303555e-09 0.000000000000e+00 
3.000000000000e+00 3.040386344795e+01 1.795171361167e-08 -1.511751672151e-09 0.000000000000e+00 
4.000000000000e+00 3.040388843150e+01 2.096632436920e-08 -1.540799210648e-09 0.000000000000e+00 
5.000000000000e+00 3.040399295209e+01 2.817586048381e-07 -1.832569110369e-09 0.000000000000e+00 
6.000000000000e+00 3.040399504901e+01 2.785235780475e-07 -2.380775854602e-09 0.000000000000e+00 
7.000000000000e+00 3.040482953034e+01 1.102591013543e-09 -2.648911356356e-09 0.000000000000e+00 
8.000000000000e+00 3.040808240356e+01 6.367496029042e-09 -2.644541039955e-09 0.000000000000e+00 
9.000000000000e+00 3.040820133085e+01 2.230966965448e-07 -2.860454931652e-09 0.000000000000e+00 
1.000000000000e+01 3.040820524826e+01 2.296911386915e-07 -3.298954539617e-09 0.000000000000e+00 
1.100000000000e+01 3.040828162595e+01 1.932693536638e-08 -3.534024513998e-09 0.000000000000e+00 
1.200000000000e+01 3.040843031450e+01 6.640480087745e-09 -3.544291808801e-09 0.000000000000e+00 
1.300000000000e+01 3.042766349344e+01 1.578395395922e-07 -3.683458593038e-09 0.000000000000e+00 
1.400000000000e+01 3.042767020181e+01 1.636689726008e-07 -3.970067571193e-09 0.000000000000e+00 
1.500000000000e+01 3.042786387336e+01 8.958973528806e-09 -4.104493156593e-09 0.000000000000e+00 
1.600000000000e+01 3.042823187285e+01 1.560652603090e-08 -4.089186246022e-09 0.000000000000e+00 
1.700000000000e+01 3.042832210472e+01 1.724084779791e-08 -4.081340567344e-09 0.000000000000e+00 
1.800000000000e+01 3.042856157547e+01 5.619236269278e-09 -4.061911318641e-09 0.000000000000e+00 
1.900000000000e+01 3.042979706150e+01 4.007873953118e-09 -4.024812570797e-09 0.000000000000e+00 
2.000000000000e+01 3.043015435243e+01 7.204574662698e-09 -3.984159121298e-09 0.000000000000e+00 
2.100000000000e+01 3.043042178532e+01 2.009865693084e-08 -3.956426976093e-09 0.000000000000e+00 
2.200000000000e+01 3.043049010649e+01 1.507900584464e-07 -4.071364755156e-09 0.000000000000e+00 
2.300000000000e+01 3.043049871896e+01 1.751169160203e-07 -4.341627418365e-09 0.000000000000e+00 
2.400000000000e+01 3.043052953183e+01 4.113271885713e-08 -4.498822202701e-09 0.000000000000e+00 
2.500000000000e+01 3.043206982944e+01 8.970552248350e-08 -4.557999326790e-09 0.000000000000e+00 
2.600000000000e+01 3.043208417495e+01 8.927095892703e-08 -4.645998410052e-09 0.000000000000e+00 
2.700000000000e+01 3.043553617033e+01 1.937422589979e-08 -4.622196405106e-09 0.000000000000e+00 
2.800000000000e+01 3.043560260155e+01 4.366567996957e-08 -4.512928828191e-09 0.000000000000e+00 
2.900000000000e+01 3.043565271777e+01 2.509390607849e-08 -4.384802063290e-09 0.000000000000e+00 
3.000000000000e+01 3.043844355125e+01 8.536303318591e-10 -4.303422048292e-09 0.000000000000e+00 
 ZONE T="TIME=3.456000000000e+05"
0.000000000000e+00 3.040331492500e+01 7.490430685917e-07 -7.393241338963e-10 0.000000000000e+00 
1.000000000000e+00 3.040331547009e+01 3.816899644854e-07 -1.112772964726e-09 0.000000000000e+00 
2.000000000000e+00 3.040337271907e+01 8.266872233581e-09 -1.487837212695e-09 0.000000000000e+00 
3.000000000000e+00 3.040374714635e+01 1.795165881238e-08 -1.500622910300e-09 0.000000000000e+00 
4.000000000000e+00 3.040377191696e+01 2.096626054535e-08 -1.525922711435e-09 0.000000000000e+00 
5.000000000000e+00 3.040387531256e+01 2.817577524810e-07 -1.813910629750e-09 0.000000000000e+00 
6.000000000000e+00 3.040387738903e+01 2.785227356206e-07 -2.358289516805e-09 0.000000000000e+00 
7.000000000000e+00 3.040470419239e+01 1.102587944276e-09 -2.622389662777e-09 0.000000000000e+00 
8.000000000000e+00 3.040792184887e+01 6.367482406164e-09 -2.613357844286e-09 0.000000000000e+00 
9.000000000000e+00 3.040803925904e+01 2.230962225305e-07 -2.824048016627e-09 0.000000000000e+00 
1.000000000000e+01 3.040804312669e+01 2.296906507981e-07 -3.257225580467e-09 0.000000000000e+00 
1.100000000000e+01 3.040811854183e+01 1.932689455372e-08 -3.486944122600e-09 0.000000000000e+00 
1.200000000000e+01 3.040826514331e+01 6.640466178415e-09 -3.490890492363e-09 0.000000000000e+00 
1.300000000000e+01 3.042718869780e+01 1.578394180061e-07 -3.619264551163e-09 0.000000000000e+00 
1.400000000000e+01 3.042719528101e+01 1.636688466006e-07 -3.890640002915e-09 0.000000000000e+00 
1.500000000000e+01 3.042738483519e+01 8.958966758839e-09 -4.008984796759e-09 0.000000000000e+00 
1.600000000000e+01 3.042774352817e+01 1.560651459379e-08 -3.977727991986e-09 0.000000000000e+00 
1.700000000000e+01 3.042783112269e+01 1.724083524384e-08 -3.954111618787e-09 0.000000000000e+00 
1.800000000000e+01 3.042806266190e+01 5.619232234256e-09 -3.919407591459e-09 0.000000000000e+00 
1.900000000000e+01 3.042925236036e+01 4.007871230146e-09 -3.868636567988e-09 0.000000000000e+00 
2.000000000000e+01 3.042959515797e+01 7.204569821523e-09 -3.816366913607e-09 0.000000000000e+00 
2.100000000000e+01 3.042985090923e+01 2.009864348474e-08 -3.778558743958e-09 0.000000000000e+00 
2.200000000000e+01 3.042991607136e+01 1.507899575998e-07 -3.884412060421e-09 0.000000000000e+00 
2.300000000000e+01 3.042992429094e+01 1.751167989196e-07 -4.145996467452e-09 0.000000000000e+00 
2.400000000000e+01 3.042995373150e+01 4.113269137875e-08 -4.296419252049e-09 0.000000000000e+00 
2.500000000000e+01 3.043142403576e+01 8.970546477438e-08 -4.357434927954e-09 0.000000000000e+00 
2.600000000000e+01 3.043143777023e+01 8.927090151846e-08 -4.462279398157e-09 0.000000000000e+00 
2.700000000000e+01 3.043476362059e+01 1.937421459743e-08 -4.489525868053e-09 0.000000000000e+00 
2.800000000000e+01 3.043482868013e+01 4.366565453341e-08 -4.464712440696e-09 0.000000000000e+00 
2.900000000000e+01 3.043487877072e+01 2.509389147224e-08 -4.445142369701e-09 0.000000000000e+00 
3.000000000000e+01 3.043774934834e+01 8.536298440033e-10 -4.426386289283e-09 0.000000000000e+00 
 ZONE T="TIME=4.320000000000e+05"
0.000000000000e+00 3.040311162652e+01 7.490372246098e-07 -7.341235073061e-10 0.000000000000e+00 
1.000000000000e+00 3.040311216777e+01 3.816869871488e-07 -1.102443977158e-09 0.000000000000e+00 
2.000000000000e+00 3.040316882133e+01 8.266808400229e-09 -1.467140121604e-09 0.000000000000e+00 
3.000000000000e+00 3.040353672847e+01 1.795152699592e-08 -1.469275686989e-09 0.000000000000e+00 
4.000000000000e+00 3.040356089680e+01 2.096610695808e-08 -1.483681767111e-09 0.000000000000e+00 
5.000000000000e+00 3.040366108831e+01 2.817556993156e-07 -1.760607564178e-09 0.000000000000e+00 
6.000000000000e+00 3.040366310621e+01 2.785207064735e-07 -2.293705096224e-09 0.000000000000e+00 
7.000000000000e+00 3.040446780318e+01 1.102580462725e-09 -2.545156330573e-09 0.000000000000e+00 
8.000000000000e+00 3.040758191819e+01 6.367448118215e-09 -2.519425839121e-09 0.000000000000e+00 
9.000000000000e+00 3.040769466548e+01 2.230950289308e-07 -2.709814682308e-09 0.000000000000e+00 
1.000000000000e+01 3.040769837424e+01 2.296894222689e-07 -3.121823017926e-09 0.000000000000e+00 
1.100000000000e+01 3.040777062228e+01 1.932679172714e-08 -3.330196411331e-09 0.000000000000e+00 
1.200000000000e+01 3.040791020253e+01 6.640431113368e-09 -3.304741910006e-09 0.000000000000e+00 
1.300000000000e+01 3.042572155773e+01 1.578391303546e-07 -3.364745760800e-09 0.000000000000e+00 
1.400000000000e+01 3.042572760738e+01 1.636685485115e-07 -3.528821961063e-09 0.000000000000e+00 
1.500000000000e+01 3.042589742263e+01 8.958950766903e-09 -3.530981640213e-09 0.000000000000e+00 
1.600000000000e+01 3.042620788057e+01 1.560648766455e-08 -3.380797374836e-09 0.000000000000e+00 
1.700000000000e+01 3.042628095540e+01 1.724080570919e-08 -3.235286732372e-09 0.000000000000e+00 
1.800000000000e+01 3.042646666984e+01 5.619222761198e-09 -3.073670801340e-09 0.000000000000e+00 
1.900000000000e+01 3.042737813794e+01 4.007864910893e-09 -2.882062449273e-09 0.000000000000e+00 
2.000000000000e+01 3.042762616222e+01 7.204558627010e-09 -2.672824449996e-09 0.000000000000e+00 
2.100000000000e+01 3.042779927522e+01 2.009861247667e-08 -2.468309780958e-09 0.000000000000e+00 
2.200000000000e+01 3.042784029100e+01 1.507897251782e-07 -2.402217909034e-09 0.000000000000e+00 
2.300000000000e+01 3.042784528901e+01 1.751165290500e-07 -2.489917077986e-09 0.000000000000e+00 
2.400000000000e+01 3.042786276369e+01 4.113262806603e-08 -2.459923407497e-09 0.000000000000e+00 
2.500000000000e+01 3.042867381033e+01 8.970533297410e-08 -2.311511709034e-09 0.000000000000e+00 
2.600000000000e+01 3.042868081280e+01 8.927077041781e-08 -2.161998891522e-09 0.000000000000e+00 
2.700000000000e+01 3.043020983989e+01 1.937418911890e-08 -1.847955273923e-09 0.000000000000e+00 
2.800000000000e+01 3.043023345469e+01 4.366559719160e-08 -1.398937335597e-09 0.000000000000e+00 
2.900000000000e+01 3.043024666226e+01 2.509385854258e-08 -9.109159322161e-10 0.000000000000e+00 
3.000000000000e+01 3.043066483685e+01 8.536287464638e-10 -6.448187474384e-10 0.000000000000e+00 
 ZONE T="TIME=5.184000000000e+05"
0.000000000000e+00 3.040280131954e+01 7.490263922821e-07 -7.278342234495e-10 0.000000000000e+00 
1.000000000000e+00 3.040280185616e+01 3.816814675517e-07 -1.089892610314e-09 0.000000000000e+00 
2.000000000000e+00 3.040285778503e+01 8.266689809883e-09 -1.442113507600e-09 0.000000000000e+00 
3.000000000000e+00 3.040321783892e+01 1.795128003091e-08 -1.431768154523e-09 0.000000000000e+00 
4.000000000000e+00 3.040324129000e+01 2.096581910391e-08 -1.433614455848e-09 0.000000000000e+00 
5.000000000000e+00 3.040333769767e+01 2.817518524605e-07 -1.697902036864e-09 0.000000000000e+00 
6.000000000000e+00 3.040333964690e+01 2.785169041884e-07 -2.218252639074e-09 0.000000000000e+00 
7.000000000000e+00 3.040411859971e+01 1.102566317986e-09 -2.456679903679e-09 0.000000000000e+00 
8.000000000000e+00 3.040711574163e+01 6.367381586418e-09 -2.417146689076e-09 0.000000000000e+00 
9.000000000000e+00 3.040722356635e+01 2.230927114366e-07 -2.593015174883e-09 0.000000000000e+00 
1.000000000000e+01 3.040722711703e+01 2.296870367410e-07 -2.990329942558e-09 0.000000000000e+00 
1.100000000000e+01 3.040729635364e+01 1.932659190333e-08 -3.184040478426e-09 0.000000000000e+00 
1.200000000000e+01 3.040742949988e+01 6.640362926070e-09 -3.146143713780e-09 0.000000000000e+00 
1.300000000000e+01 3.042435179788e+01 1.578385368723e-07 -3.204493725356e-09 0.000000000000e+00 
1.400000000000e+01 3.042435757257e+01 1.636679334900e-07 -3.377806421784e-09 0.000000000000e+00 
1.500000000000e+01 3.042452055170e+01 8.958917709954e-09 -3.392347114049e-09 0.000000000000e+00 
1.600000000000e+01 3.042481914272e+01 1.560643182521e-08 -3.257051255511e-09 0.000000000000e+00 
1.700000000000e+01 3.042488966651e+01 1.724074442875e-08 -3.129271200173e-09 0.000000000000e+00 
1.800000000000e+01 3.042506971133e+01 5.619203085460e-09 -2.990730024756e-09 0.000000000000e+00 
1.900000000000e+01 3.042596000729e+01 4.007851742396e-09 -2.837543269599e-09 0.000000000000e+00 
2.000000000000e+01 3.042620627294e+01 7.204535287370e-09 -2.684821990602e-09 0.000000000000e+00 
2.100000000000e+01 3.042638233401e+01 2.009854782248e-08 -2.548167882434e-09 0.000000000000e+00 
2.200000000000e+01 3.042642535724e+01 1.507892405979e-07 -2.556250467227e-09 0.000000000000e+00 
2.300000000000e+01 3.042643074960e+01 1.751159664178e-07 -2.720506107833e-09 0.000000000000e+00 
2.400000000000e+01 3.042645007162e+01 4.113249605133e-08 -2.775718728403e-09 0.000000000000e+00 
2.500000000000e+01 3.042738494553e+01 8.970505744298e-08 -2.751068978593e-09 0.000000000000e+00 
2.600000000000e+01 3.042739355667e+01 8.927049633304e-08 -2.786144419065e-09 0.000000000000e+00 
2.700000000000e+01 3.042946170264e+01 1.937413558868e-08 -2.777856981969e-09 0.000000000000e+00 
2.800000000000e+01 3.042950175397e+01 4.366547673193e-08 -2.750649489491e-09 0.000000000000e+00 
2.900000000000e+01 3.042953263797e+01 2.509378937748e-08 -2.749187420484e-09 0.000000000000e+00 
3.000000000000e+01 3.043131352508e+01 8.536264390561e-10 -2.746100363069e-09 0.000000000000e+00 
 ZONE T="TIME=6.048000000000e+05"
0.000000000000e+00 3.040241881114e+01 7.490067411481e-07 -7.235047531597e-10 0.000000000000e+00 
1.000000000000e+00 3.040241934456e+01 3.816714547064e-07 -1.081300718708e-09 0.000000000000e+00 
2.000000000000e+00 3.040247477829e+01 8.266474662956e-09 -1.425114691349e-09 0.000000000000e+00 
3.000000000000e+00 3.040282951705e+01 1.795083152417e-08 -1.406581123579e-09 0.000000000000e+00 
4.000000000000e+00 3.040285248919e+01 2.096529631515e-08 -1.400385136099e-09 0.000000000000e+00 
5.000000000000e+00 3.040294639746e+01 2.817448628315e-07 -1.656678175991e-09 0.000000000000e+00 
6.000000000000e+00 3.040294830171e+01 2.785099957114e-07 -2.169132948365e-09 0.000000000000e+00 
7.000000000000e+00 3.040371057901e+01 1.102540561663e-09 -2.400595377842e-09 0.000000000000e+00 
8.000000000000e+00 3.040663496673e+01 6.367259501771e-09 -2.356745695982e-09 0.000000000000e+00 
9.000000000000e+00 3.040674001883e+01 2.230884581438e-07 -2.530589758877e-09 0.000000000000e+00 
1.000000000000e+01 3.040674348904e+01 2.296826586244e-07 -2.926397796460e-09 0.000000000000e+00 
1.100000000000e+01 3.040681132310e+01 1.932622513093e-08 -3.118768855912e-09 0.000000000000e+00 
1.200000000000e+01 3.040694170746e+01 6.640237745703e-09 -3.085491953679e-09 0.000000000000e+00 
1.300000000000e+01 3.042356304043e+01 1.578374129461e-07 -3.177012188745e-09 0.000000000000e+00 
1.400000000000e+01 3.042356881593e+01 1.636667687144e-07 -3.412000177616e-09 0.000000000000e+00 
1.500000000000e+01 3.042373499173e+01 8.958855041201e-09 -3.494626747700e-09 0.000000000000e+00 
1.600000000000e+01 3.042404586526e+01 1.560632579507e-08 -3.429138242255e-09 0.000000000000e+00 
1.700000000000e+01 3.042412097372e+01 1.724062802774e-08 -3.372984114976e-09 0.000000000000e+00 
1.800000000000e+01 3.042431745397e+01 5.619165682863e-09 -3.308967047393e-09 0.000000000000e+00 
1.900000000000e+01 3.042531664381e+01 4.007826634331e-09 -3.238111518034e-09 0.000000000000e+00 
2.000000000000e+01 3.042560257949e+01 7.204490763276e-09 -3.176527160193e-09 0.000000000000e+00 
2.100000000000e+01 3.042581499088e+01 2.009842447427e-08 -3.135959565741e-09 0.000000000000e+00 
2.200000000000e+01 3.042586903164e+01 1.507883161515e-07 -3.242578538808e-09 0.000000000000e+00 
2.300000000000e+01 3.042587593513e+01 1.751148930406e-07 -3.506218217596e-09 0.000000000000e+00 
2.400000000000e+01 3.042590099212e+01 4.113224418655e-08 -3.663049103188e-09 0.000000000000e+00 
2.500000000000e+01 3.042715671148e+01 8.970453070442e-08 -3.749730549109e-09 0.000000000000e+00 
2.600000000000e+01 3.042716861735e+01 8.926997234944e-08 -3.908997817341e-09 0.000000000000e+00 
2.700000000000e+01 3.043011182812e+01 1.937403244002e-08 -4.043118229208e-09 0.000000000000e+00 
2.800000000000e+01 3.043017144555e+01 4.366524457621e-08 -4.174678417455e-09 0.000000000000e+00 
2.900000000000e+01 3.043021921856e+01 2.509365606120e-08 -4.332588412320e-09 0.000000000000e+00 
3.000000000000e+01 3.043307775107e+01 8.536219842440e-10 -4.407812908304e-09 0.000000000000e+00 
 ZONE T="TIME=6.912000000000e+05"
0.000000000000e+00 3.040204779041e+01 7.489770983596e-07 -7.239557638457e-10 0.000000000000e+00 
1.000000000000e+00 3.040204832417e+01 3.816563508149e-07 -1.082304147657e-09 0.000000000000e+00 
2.000000000000e+00 3.040210381782e+01 8.266149640971e-09 -1.427418473308e-09 0.000000000000e+00 
3.000000000000e+00 3.040245932375e+01 1.795014901964e-08 -1.410623745886e-09 0.000000000000e+00 
4.000000000000e+00 3.040248237836e+01 2.096450052477e-08 -1.406517479200e-09 0.000000000000e+00 
5.000000000000e+00 3.040257677211e+01 2.817342175943e-07 -1.665058190905e-09 0.000000000000e+00 
6.000000000000e+00 3.040257868584e+01 2.784994739729e-07 -2.180034723851e-09 0.000000000000e+00 
7.000000000000e+00 3.040334482373e+01 1.102501004022e-09 -2.416040156812e-09 0.000000000000e+00 
8.000000000000e+00 3.040629210785e+01 6.367067250816e-09 -2.382458805623e-09 0.000000000000e+00 
9.000000000000e+00 3.040639863553e+01 2.230817562421e-07 -2.571538534670e-09 0.000000000000e+00 
1.000000000000e+01 3.040640216825e+01 2.296757599405e-07 -2.983690174633e-09 0.000000000000e+00 
1.100000000000e+01 3.040647142291e+01 1.932564691572e-08 -3.192694368512e-09 0.000000000000e+00 
1.200000000000e+01 3.040660525987e+01 6.640040279756e-09 -3.185619028884e-09 0.000000000000e+00 
1.300000000000e+01 3.042386680014e+01 1.578354863541e-07 -3.349045779367e-09 0.000000000000e+00 
1.400000000000e+01 3.042387297231e+01 1.636647719805e-07 -3.701510987687e-09 0.000000000000e+00 
1.500000000000e+01 3.042405575426e+01 8.958747412129e-09 -3.911674279103e-09 0.000000000000e+00 
1.600000000000e+01 3.042440988777e+01 1.560614312446e-08 -3.975978796043e-09 0.000000000000e+00 
1.700000000000e+01 3.042449852547e+01 1.724042735531e-08 -4.051934708600e-09 0.000000000000e+00 
1.800000000000e+01 3.042473878035e+01 5.619101103740e-09 -4.123630337105e-09 0.000000000000e+00 
1.900000000000e+01 3.042600788382e+01 4.007782994103e-09 -4.198168833099e-09 0.000000000000e+00 
2.000000000000e+01 3.042638629059e+01 7.204413256134e-09 -4.292981615659e-09 0.000000000000e+00 
2.100000000000e+01 3.042667942602e+01 2.009820957481e-08 -4.415169517453e-09 0.000000000000e+00 
2.200000000000e+01 3.042675702996e+01 1.507867053497e-07 -4.687797345007e-09 0.000000000000e+00 
2.300000000000e+01 3.042676707239e+01 1.751130227117e-07 -5.118589369062e-09 0.000000000000e+00 
2.400000000000e+01 3.042680377149e+01 4.113180527726e-08 -5.446135554079e-09 0.000000000000e+00 
2.500000000000e+01 3.042869836990e+01 8.970360900244e-08 -5.719218426654e-09 0.000000000000e+00 
2.600000000000e+01 3.042871671752e+01 8.926905543893e-08 -6.088258050372e-09 0.000000000000e+00 
2.700000000000e+01 3.043334709052e+01 1.937385025981e-08 -6.474714201493e-09 0.000000000000e+00 
2.800000000000e+01 3.043344420255e+01 4.366483448847e-08 -6.898825792774e-09 0.000000000000e+00 
2.900000000000e+01 3.043352423398e+01 2.509342055125e-08 -7.368325462398e-09 0.000000000000e+00 
3.000000000000e+01 3.043845588485e+01 8.536141008171e-10 -7.604529352881e-09 0.000000000000e+00 
 ZONE T="TIME=7.776000000000e+05"
0.000000000000e+00 3.040177817641e+01 7.489315047952e-07 -7.295739961553e-10 0.000000000000e+00 
1.000000000000e+00 3.040177871431e+01 3.816331192608e-07 -1.093775825565e-09 0.000000000000e+00 
2.000000000000e+00 3.040183487533e+01 8.265649724048e-09 -1.450704169378e-09 0.000000000000e+00 
3.000000000000e+00 3.040219773335e+01 1.794909913188e-08 -1.446091377722e-09 0.000000000000e+00 
4.000000000000e+00 3.040222147103e+01 2.096327633813e-08 -1.454548572039e-09 0.000000000000e+00 
5.000000000000e+00 3.040231951528e+01 2.817178391473e-07 -1.725813495004e-09 0.000000000000e+00 
6.000000000000e+00 3.040232149578e+01 2.784832853516e-07 -2.253862926602e-09 0.000000000000e+00 
7.000000000000e+00 3.040311295819e+01 1.102440075331e-09 -2.505035742569e-09 0.000000000000e+00 
8.000000000000e+00 3.040618013363e+01 6.366769525271e-09 -2.492393928029e-09 0.000000000000e+00 
9.000000000000e+00 3.040629216579e+01 2.230713754219e-07 -2.707432365482e-09 0.000000000000e+00 
1.000000000000e+01 3.040629588873e+01 2.296650741758e-07 -3.146675664897e-09 0.000000000000e+00 
1.100000000000e+01 3.040636897328e+01 1.932475117442e-08 -3.383039575304e-09 0.000000000000e+00 
1.200000000000e+01 3.040651136743e+01 6.639734320454e-09 -3.410393695366e-09 0.000000000000e+00 
1.300000000000e+01 3.042510565105e+01 1.578323748321e-07 -3.641899610331e-09 0.000000000000e+00 
1.400000000000e+01 3.042511242000e+01 1.636615470537e-07 -4.095931502163e-09 0.000000000000e+00 
1.500000000000e+01 3.042531631278e+01 8.958573378242e-09 -4.414655909235e-09 0.000000000000e+00 
1.600000000000e+01 3.042572055167e+01 1.560584716598e-08 -4.588094353982e-09 0.000000000000e+00 
1.700000000000e+01 3.042582392034e+01 1.724010209403e-08 -4.773632654662e-09 0.000000000000e+00 
1.800000000000e+01 3.042610977581e+01 5.618996332265e-09 -4.955131864949e-09 0.000000000000e+00 
1.900000000000e+01 3.042764958113e+01 4.007711917961e-09 -5.139578417978e-09 0.000000000000e+00 
2.000000000000e+01 3.042811690055e+01 7.204286917304e-09 -5.344124093225e-09 0.000000000000e+00 
2.100000000000e+01 3.042848463841e+01 2.009785915828e-08 -5.575559466230e-09 0.000000000000e+00 
2.200000000000e+01 3.042858326378e+01 1.507840786764e-07 -5.956961878537e-09 0.000000000000e+00 
2.300000000000e+01 3.042859602376e+01 1.751099727857e-07 -6.496301398823e-09 0.000000000000e+00 