VARIABLES = "Time","Value"
ZONE T=obs_00000
0.000000000000e+00 0.000000000000e+00
8.640000000000e+04 2.884776841778e-09
1.728000000000e+05 2.884459505083e-09
2.592000000000e+05 2.884649799592e-09
3.456000000000e+05 2.884655307861e-09
4.320000000000e+05 2.884490220914e-09
5.184000000000e+05 2.884555639145e-09
6.048000000000e+05 2.883907879537e-09
6.912000000000e+05 2.884561518543e-09
7.776000000000e+05 2.884443854547e-09
8.640000000000e+05 2.884599392839e-09
9.504000000000e+05 2.884641330240e-09
1.036800000000e+06 2.884380652640e-09
1.123200000000e+06 2.884175850971e-09
1.209600000000e+06 2.884497745749e-09
1.296000000000e+06 2.884596299546e-09
1.382400000000e+06 2.884538312117e-09
1.468800000000e+06 2.884568769891e-09
1.555200000000e+06 2.884461546505e-09
1.641600000000e+06 2.884327180633e-09
1.728000000000e+06 2.884741606253e-09
1.814400000000e+06 2.884249396620e-09
1.900800000000e+06 2.884206040402e-09
1.987200000000e+06 2.884135623700e-09
2.073600000000e+06 2.881880140317e-09
2.160000000000e+06 2.883862421936e-09
2.246400000000e+06 2.883809780989e-09
2.332800000000e+06 2.883466477638e-09
2.419200000000e+06 2.882003559944e-09
2.505600000000e+06 2.883092762138e-09
2.592000000000e+06 2.882622144858e-09
2.678400000000e+06 2.882949024031e-09
2.764800000000e+06 2.882751861561e-09
2.851200000000e+06 2.882532996443e-09
2.937600000000e+06 2.882283202107e-09
3.024000000000e+06 2.882151268841e-09
3.110400000000e+06 2.881820612949e-09
3.196800000000e+06 2.881639537745e-09
3.283200000000e+06 2.881438048201e-09
3.369600000000e+06 2.881220987735e-09
3.456000000000e+06 2.881027162340e-09
3.542400000000e+06 2.880786657992e-09
3.628800000000e+06 2.880629904111e-09
3.715200000000e+06 2.880264392818e-09
3.801600000000e+06 2.880428653483e-09
3.888000000000e+06 2.879324529457e-09
3.974400000000e+06 2.880103776947e-09
4.060800000000e+06 2.880036991586e-09
4.147200000000e+06 2.879995341993e-09
4.233600000000e+06 2.880919506929e-09
4.320000000000e+06 2.879940332088e-09
4.406400000000e+06 2.879950057357e-09
4.492800000000e+06 2.879119735936e-09
4.579200000000e+06 2.879952457740e-09
4.665600000000e+06 2.880203846137e-09
4.752000000000e+06 2.880160604262e-09
4.838400000000e+06 2.880364074232e-09
4.924800000000e+06 2.879617261184e-09
5.011200000000e+06 2.881825550528e-09
5.097600000000e+06 2.880604344080e-09
5.184000000000e+06 2.880753098476e-09
5.270400000000e+06 2.880893609658e-09
5.356800000000e+06 2.880917931189e-09
5.443200000000e+06 2.881498103728e-09
5.529600000000e+06 2.881207064868e-09
5.616000000000e+06 2.881508757007e-09
5.702400000000e+06 2.881646313285e-09
5.788800000000e+06 2.881692870516e-09
5.875200000000e+06 2.882073123450e-09
5.961600000000e+06 2.882190919700e-09
6.048000000000e+06 2.882356341805e-09
6.134400000000e+06 2.882504337910e-09
6.220800000000e+06 2.882543003797e-09
6.307200000000e+06 2.882954529188e-09
