 TITLE = "Profiles along polylines"
 VARIABLES = "DIST" "HEAD" "VELOCITY_X1" "VELOCITY_Y1" "VELOCITY_Z1" 
 ZONE T="TIME=0.000000000000e+00"
0.000000000000e+00 3.009776780214e+01 0.000000000000e+00 0.000000000000e+00 0.000000000000e+00 
1.000000000000e+00 3.009776813385e+01 0.000000000000e+00 0.000000000000e+00 0.000000000000e+00 
2.000000000000e+00 3.009780312663e+01 0.000000000000e+00 0.000000000000e+00 0.000000000000e+00 
3.000000000000e+00 3.009803399944e+01 0.000000000000e+00 0.000000000000e+00 0.000000000000e+00 
4.000000000000e+00 3.009804940967e+01 0.000000000000e+00 0.000000000000e+00 0.000000000000e+00 
5.000000000000e+00 3.009811428997e+01 0.000000000000e+00 0.000000000000e+00 0.000000000000e+00 
6.000000000000e+00 3.009811559889e+01 0.000000000000e+00 0.000000000000e+00 0.000000000000e+00 
7.000000000000e+00 3.009863823957e+01 0.000000000000e+00 0.000000000000e+00 0.000000000000e+00 
8.000000000000e+00 3.010068394044e+01 0.000000000000e+00 0.000000000000e+00 0.000000000000e+00 
9.000000000000e+00 3.010075917657e+01 0.000000000000e+00 0.000000000000e+00 0.000000000000e+00 
1.000000000000e+01 3.010076174633e+01 0.000000000000e+00 0.000000000000e+00 0.000000000000e+00 
1.100000000000e+01 3.010081322526e+01 0.000000000000e+00 0.000000000000e+00 0.000000000000e+00 
1.200000000000e+01 3.010091399177e+01 0.000000000000e+00 0.000000000000e+00 0.000000000000e+00 
1.300000000000e+01 3.011402154750e+01 0.000000000000e+00 0.000000000000e+00 0.000000000000e+00 
1.400000000000e+01 3.011402664028e+01 0.000000000000e+00 0.000000000000e+00 0.000000000000e+00 
1.500000000000e+01 3.011418720421e+01 0.000000000000e+00 0.000000000000e+00 0.000000000000e+00 
1.600000000000e+01 3.011449640605e+01 0.000000000000e+00 0.000000000000e+00 0.000000000000e+00 
1.700000000000e+01 3.011457347351e+01 0.000000000000e+00 0.000000000000e+00 0.000000000000e+00 
1.800000000000e+01 3.011478152181e+01 0.000000000000e+00 0.000000000000e+00 0.000000000000e+00 
1.900000000000e+01 3.011586888958e+01 0.000000000000e+00 0.000000000000e+00 0.000000000000e+00 
2.000000000000e+01 3.011618779732e+01 0.000000000000e+00 0.000000000000e+00 0.000000000000e+00 
2.100000000000e+01 3.011643046220e+01 0.000000000000e+00 0.000000000000e+00 0.000000000000e+00 
2.200000000000e+01 3.011649385122e+01 0.000000000000e+00 0.000000000000e+00 0.000000000000e+00 
2.300000000000e+01 3.011650239269e+01 0.000000000000e+00 0.000000000000e+00 0.000000000000e+00 
2.400000000000e+01 3.011653490349e+01 0.000000000000e+00 0.000000000000e+00 0.000000000000e+00 
2.500000000000e+01 3.011819922221e+01 0.000000000000e+00 0.000000000000e+00 0.000000000000e+00 
2.600000000000e+01 3.011821532458e+01 0.000000000000e+00 0.000000000000e+00 0.000000000000e+00 
2.700000000000e+01 3.012224586709e+01 0.000000000000e+00 0.000000000000e+00 0.000000000000e+00 
2.800000000000e+01 3.012232651437e+01 0.000000000000e+00 0.000000000000e+00 0.000000000000e+00 
2.900000000000e+01 3.012239028736e+01 0.000000000000e+00 0.000000000000e+00 0.000000000000e+00 
3.000000000000e+01 3.012613102885e+01 0.000000000000e+00 0.000000000000e+00 0.000000000000e+00 
 TITLE = "Profiles along polylines"
 VARIABLES = "DIST" "HEAD" "VELOCITY_X1" "VELOCITY_Y1" "VELOCITY_Z1" 
 ZONE T="TIME=8.640000000000e+04"
0.000000000000e+00 3.009773943288e+01 1.293684382369e-06 -4.467326296710e-10 0.000000000000e+00 
1.000000000000e+00 3.009773976224e+01 6.592244519390e-07 -6.736419743015e-10 0.000000000000e+00 
2.000000000000e+00 3.009777445130e+01 1.428141670723e-08 -9.038336433059e-10 0.000000000000e+00 
3.000000000000e+00 3.009800248740e+01 3.106283108529e-08 -9.163322510249e-10 0.000000000000e+00 
4.000000000000e+00 3.009801765244e+01 3.628309728520e-08 -9.365866343185e-10 0.000000000000e+00 
5.000000000000e+00 3.009808127381e+01 4.878159423357e-07 -1.119872921085e-09 0.000000000000e+00 
6.000000000000e+00 3.009808255894e+01 4.822194089245e-07 -1.462333147645e-09 0.000000000000e+00 
7.000000000000e+00 3.009859602086e+01 1.915790097470e-09 -1.630492787618e-09 0.000000000000e+00 
8.000000000000e+00 3.010059901139e+01 1.121767252558e-08 -1.628775618663e-09 0.000000000000e+00 
9.000000000000e+00 3.010067227557e+01 3.932286032675e-07 -1.795221005241e-09 0.000000000000e+00 
1.000000000000e+01 3.010067477306e+01 4.048584015565e-07 -2.132520048706e-09 0.000000000000e+00 
1.100000000000e+01 3.010072473839e+01 3.407643384463e-08 -2.313455431917e-09 0.000000000000e+00 
1.200000000000e+01 3.010082213776e+01 1.171514528170e-08 -2.317749221269e-09 0.000000000000e+00 
1.300000000000e+01 3.011337793156e+01 2.997408418094e-07 -2.519427786112e-09 0.000000000000e+00 
1.400000000000e+01 3.011338271359e+01 3.108174753045e-07 -2.937090301698e-09 0.000000000000e+00 
1.500000000000e+01 3.011353084730e+01 1.702196972752e-08 -3.123091928191e-09 0.000000000000e+00 
1.600000000000e+01 3.011380938616e+01 2.967940561719e-08 -3.082947136735e-09 0.000000000000e+00 
1.700000000000e+01 3.011387714550e+01 3.279462117222e-08 -3.053333707956e-09 0.000000000000e+00 
1.800000000000e+01 3.011405562046e+01 1.069465184473e-08 -3.004549428912e-09 0.000000000000e+00 
1.900000000000e+01 3.011496252063e+01 7.649835585523e-09 -2.924797027585e-09 0.000000000000e+00 
2.000000000000e+01 3.011521950670e+01 1.376269187239e-08 -2.835346397934e-09 0.000000000000e+00 
2.100000000000e+01 3.011540777181e+01 3.841715209486e-08 -2.764227007492e-09 0.000000000000e+00 
2.200000000000e+01 3.011545514175e+01 2.882674011729e-07 -2.919316719477e-09 0.000000000000e+00 
2.300000000000e+01 3.011546150931e+01 3.347780778271e-07 -3.321489610332e-09 0.000000000000e+00 
2.400000000000e+01 3.011548582186e+01 7.863765910890e-08 -3.542894747335e-09 0.000000000000e+00 
2.500000000000e+01 3.011669649533e+01 1.717441876021e-07 -3.607164344875e-09 0.000000000000e+00 
2.600000000000e+01 3.011670792395e+01 1.709137619897e-07 -3.716403533778e-09 0.000000000000e+00 
2.700000000000e+01 3.011948024635e+01 3.713937712084e-08 -3.646159666293e-09 0.000000000000e+00 
2.800000000000e+01 3.011953167578e+01 8.370639883244e-08 -3.440464397999e-09 0.000000000000e+00 
2.900000000000e+01 3.011956927757e+01 4.810490794510e-08 -3.212569793063e-09 0.000000000000e+00 
3.000000000000e+01 3.012156294212e+01 1.636481143866e-09 -3.074199902155e-09 0.000000000000e+00 
 ZONE T="TIME=1.728000000000e+05"
0.000000000000e+00 3.009770064477e+01 1.293307126142e-06 -4.443555137107e-10 0.000000000000e+00 
1.000000000000e+00 3.009770097238e+01 6.590322112502e-07 -6.697555524045e-10 0.000000000000e+00 
2.000000000000e+00 3.009773545360e+01 1.427724475573e-08 -8.978310773957e-10 0.000000000000e+00 
3.000000000000e+00 3.009796182819e+01 3.105354779433e-08 -9.091368249572e-10 0.000000000000e+00 
4.000000000000e+00 3.009797686573e+01 3.627222993747e-08 -9.282331447261e-10 0.000000000000e+00 
5.000000000000e+00 3.009803988786e+01 4.876680732598e-07 -1.109707480789e-09 0.000000000000e+00 
6.000000000000e+00 3.009804116164e+01 4.820732058806e-07 -1.449746945467e-09 0.000000000000e+00 
7.000000000000e+00 3.009855029361e+01 1.915165669076e-09 -1.616720975694e-09 0.000000000000e+00 
8.000000000000e+00 3.010053633888e+01 1.121285255369e-08 -1.616021060952e-09 0.000000000000e+00 
9.000000000000e+00 3.010060907542e+01 3.930579605066e-07 -1.783732346804e-09 0.000000000000e+00 
1.000000000000e+01 3.010061155859e+01 4.046826619299e-07 -2.121510249536e-09 0.000000000000e+00 
1.100000000000e+01 3.010066129023e+01 3.406156937131e-08 -2.304048711525e-09 0.000000000000e+00 
1.200000000000e+01 3.010075835259e+01 1.170998137395e-08 -2.316928409479e-09 0.000000000000e+00 
1.300000000000e+01 3.011334888212e+01 2.994361790878e-07 -2.553511798475e-09 0.000000000000e+00 
1.400000000000e+01 3.011335377249e+01 3.105014963217e-07 -3.032345729577e-09 0.000000000000e+00 
1.500000000000e+01 3.011350796496e+01 1.700457765482e-08 -3.288655833380e-09 0.000000000000e+00 
1.600000000000e+01 3.011380469707e+01 2.964884614518e-08 -3.324268064190e-09 0.000000000000e+00 
1.700000000000e+01 3.011387864740e+01 3.276080373948e-08 -3.374055454485e-09 0.000000000000e+00 
1.800000000000e+01 3.011407833204e+01 1.068359105001e-08 -3.411562449833e-09 0.000000000000e+00 
1.900000000000e+01 3.011512351845e+01 7.641849151748e-09 -3.437359623566e-09 0.000000000000e+00 
2.000000000000e+01 3.011543157358e+01 1.374831344785e-08 -3.475736728863e-09 0.000000000000e+00 
2.100000000000e+01 3.011566763191e+01 3.837706202301e-08 -3.545976398019e-09 0.000000000000e+00 
2.200000000000e+01 3.011572979647e+01 2.879667863900e-07 -3.848025800859e-09 0.000000000000e+00 
2.300000000000e+01 3.011573822234e+01 3.344289679438e-07 -4.397887731789e-09 0.000000000000e+00 
2.400000000000e+01 3.011577043137e+01 7.855564001875e-08 -4.778474234607e-09 0.000000000000e+00 
2.500000000000e+01 3.011743231614e+01 1.715643659718e-07 -5.047607887681e-09 0.000000000000e+00 
2.600000000000e+01 3.011744860242e+01 1.707347998014e-07 -5.430710933367e-09 0.000000000000e+00 
2.700000000000e+01 3.012159775483e+01 3.709967199655e-08 -5.772114246508e-09 0.000000000000e+00 
2.800000000000e+01 3.012168390881e+01 8.361688812396e-08 -6.109362526539e-09 0.000000000000e+00 
2.900000000000e+01 3.012175466258e+01 4.805346206225e-08 -6.495116011855e-09 0.000000000000e+00 
3.000000000000e+01 3.012608992237e+01 1.634727608104e-09 -6.684903533225e-09 0.000000000000e+00 
 ZONE T="TIME=2.592000000000e+05"
0.000000000000e+00 3.009765119420e+01 1.292799173277e-06 -4.417802439503e-10 0.000000000000e+00 
1.000000000000e+00 3.009765151992e+01 6.587733701651e-07 -6.656369941950e-10 0.000000000000e+00 
2.000000000000e+00 3.009768578304e+01 1.427162758597e-08 -8.915303087918e-10 0.000000000000e+00 
3.000000000000e+00 3.009791041309e+01 3.104110210098e-08 -9.015248612121e-10 0.000000000000e+00 
4.000000000000e+00 3.009792531489e+01 3.625766838870e-08 -9.192691215628e-10 0.000000000000e+00 
5.000000000000e+00 3.009798768956e+01 4.874705762946e-07 -1.098626699052e-09 0.000000000000e+00 
6.000000000000e+00 3.009798895089e+01 4.818779444975e-07 -1.435837845467e-09 0.000000000000e+00 
7.000000000000e+00 3.009849327062e+01 1.914345731369e-09 -1.600733588671e-09 0.000000000000e+00 
8.000000000000e+00 3.010045880638e+01 1.120689677219e-08 -1.598486434872e-09 0.000000000000e+00 
9.000000000000e+00 3.010053071566e+01 3.928475229424e-07 -1.763333683316e-09 0.000000000000e+00 
1.000000000000e+01 3.010053317031e+01 4.044659507819e-07 -2.097061922963e-09 0.000000000000e+00 
1.100000000000e+01 3.010058232731e+01 3.404325531248e-08 -2.276552864613e-09 0.000000000000e+00 
1.200000000000e+01 3.010067819492e+01 1.170363082991e-08 -2.285301969790e-09 0.000000000000e+00 
1.300000000000e+01 3.011308000210e+01 2.990878217304e-07 -2.504388400917e-09 0.000000000000e+00 
1.400000000000e+01 3.011308478111e+01 3.101402273845e-07 -2.952082105373e-09 0.000000000000e+00 
1.500000000000e+01 3.011323440687e+01 1.698476578139e-08 -3.176778320943e-09 0.000000000000e+00 
1.600000000000e+01 3.011351974782e+01 2.961417628362e-08 -3.181256346137e-09 0.000000000000e+00 
1.700000000000e+01 3.011359017902e+01 3.272245263771e-08 -3.197453039632e-09 0.000000000000e+00 
1.800000000000e+01 3.011377847748e+01 1.067104125175e-08 -3.197186382798e-09 0.000000000000e+00 
1.900000000000e+01 3.011475194540e+01 7.632678364177e-09 -3.172895790321e-09 0.000000000000e+00 
2.000000000000e+01 3.011503375821e+01 1.373169277385e-08 -3.146282023598e-09 0.000000000000e+00 
2.100000000000e+01 3.011524520572e+01 3.833036921608e-08 -3.141769410468e-09 0.000000000000e+00 
2.200000000000e+01 3.011529969478e+01 2.876157932749e-07 -3.361057432449e-09 0.000000000000e+00 
2.300000000000e+01 3.011530703164e+01 3.340212892706e-07 -3.823204425693e-09 0.000000000000e+00 
2.400000000000e+01 3.011533499166e+01 7.845986690032e-08 -4.110427375238e-09 0.000000000000e+00 
2.500000000000e+01 3.011675190185e+01 1.713538270703e-07 -4.253512827600e-09 0.000000000000e+00 
2.600000000000e+01 3.011676547580e+01 1.705252781019e-07 -4.454607877625e-09 0.000000000000e+00 
2.700000000000e+01 3.012011800607e+01 3.705471523197e-08 -4.502897277946e-09 0.000000000000e+00 
2.800000000000e+01 3.012018292772e+01 8.351557684372e-08 -4.439800036265e-09 0.000000000000e+00 
2.900000000000e+01 3.012023256542e+01 4.799524719194e-08 -4.361307883714e-09 0.000000000000e+00 
3.000000000000e+01 3.012302058141e+01 1.632755445669e-09 -4.299077528063e-09 0.000000000000e+00 
 ZONE T="TIME=3.456000000000e+05"
0.000000000000e+00 3.009758545953e+01 1.292115658339e-06 -4.383316842486e-10 0.000000000000e+00 
1.000000000000e+00 3.009758578270e+01 6.584250673908e-07 -6.599395257976e-10 0.000000000000e+00 
2.000000000000e+00 3.009761973974e+01 1.426407031228e-08 -8.826016688843e-10 0.000000000000e+00 
3.000000000000e+00 3.009784187833e+01 3.102437681429e-08 -8.905652252574e-10 0.000000000000e+00 
4.000000000000e+00 3.009785658337e+01 3.623810110931e-08 -9.061877219979e-10 0.000000000000e+00 
5.000000000000e+00 3.009791800774e+01 4.872052643865e-07 -1.082424073136e-09 0.000000000000e+00 
6.000000000000e+00 3.009791925092e+01 4.816156377137e-07 -1.415518272211e-09 0.000000000000e+00 
7.000000000000e+00 3.009841652916e+01 1.913247566404e-09 -1.577124167059e-09 0.000000000000e+00 
8.000000000000e+00 3.010035152324e+01 1.119897027740e-08 -1.571984738623e-09 0.000000000000e+00 
9.000000000000e+00 3.010042216554e+01 3.925674359594e-07 -1.731926637918e-09 0.000000000000e+00 
1.000000000000e+01 3.010042457607e+01 4.041775157920e-07 -2.059180643464e-09 0.000000000000e+00 
1.100000000000e+01 3.010047284119e+01 3.401888747037e-08 -2.233533456249e-09 0.000000000000e+00 
1.200000000000e+01 3.010056682565e+01 1.169518407675e-08 -2.237729387179e-09 0.000000000000e+00 
1.300000000000e+01 3.011269589596e+01 2.986213872684e-07 -2.444359269903e-09 0.000000000000e+00 
1.400000000000e+01 3.011270055250e+01 3.096565224699e-07 -2.871497761951e-09 0.000000000000e+00 
1.500000000000e+01 3.011284587970e+01 1.695829169597e-08 -3.078578743542e-09 0.000000000000e+00 
1.600000000000e+01 3.011312177640e+01 2.956796712725e-08 -3.069251112117e-09 0.000000000000e+00 
1.700000000000e+01 3.011318957993e+01 3.267135613437e-08 -3.071605162461e-09 0.000000000000e+00 
1.800000000000e+01 3.011337008330e+01 1.065432631400e-08 -3.058245342035e-09 0.000000000000e+00 
1.900000000000e+01 3.011429922997e+01 7.620434645165e-09 -3.022812500212e-09 0.000000000000e+00 
2.000000000000e+01 3.011456720836e+01 1.370946195085e-08 -2.987088960030e-09 0.000000000000e+00 
2.100000000000e+01 3.011476763631e+01 3.826778033431e-08 -2.974582674471e-09 0.000000000000e+00 
2.200000000000e+01 3.011481916615e+01 2.871449807350e-07 -3.182904287376e-09 0.000000000000e+00 
2.300000000000e+01 3.011482612255e+01 3.334744191688e-07 -3.630205881376e-09 0.000000000000e+00 
2.400000000000e+01 3.011485270486e+01 7.833140225385e-08 -3.907525753867e-09 0.000000000000e+00 
2.500000000000e+01 3.011619954942e+01 1.710719517452e-07 -4.051626005287e-09 0.000000000000e+00 
2.600000000000e+01 3.011621250476e+01 1.702447771834e-07 -4.267349190775e-09 0.000000000000e+00 
2.700000000000e+01 3.011943546649e+01 3.699556995683e-08 -4.366417379842e-09 0.000000000000e+00 
2.800000000000e+01 3.011949897314e+01 8.338232188265e-08 -4.388768655796e-09 0.000000000000e+00 
2.900000000000e+01 3.011954855539e+01 4.791868905824e-08 -4.419657009208e-09 0.000000000000e+00 
3.000000000000e+01 3.012241545624e+01 1.630173726594e-09 -4.420716747426e-09 0.000000000000e+00 
 ZONE T="TIME=4.320000000000e+05"
0.000000000000e+00 3.009746243988e+01 1.290916582450e-06 -4.298609552505e-10 0.000000000000e+00 
1.000000000000e+00 3.009746275680e+01 6.578140510574e-07 -6.455502835653e-10 0.000000000000e+00 
2.000000000000e+00 3.009749593159e+01 1.425081707578e-08 -8.588566583481e-10 0.000000000000e+00 
3.000000000000e+00 3.009771123694e+01 3.099496258174e-08 -8.596912441301e-10 0.000000000000e+00 
4.000000000000e+00 3.009772537563e+01 3.620367185274e-08 -8.678330651807e-10 0.000000000000e+00 
5.000000000000e+00 3.009778397057e+01 4.867369199549e-07 -1.034364295917e-09 0.000000000000e+00 
6.000000000000e+00 3.009778516007e+01 4.811525756403e-07 -1.355511278648e-09 0.000000000000e+00 
7.000000000000e+00 3.009826166827e+01 1.911280495475e-09 -1.506079588748e-09 0.000000000000e+00 
8.000000000000e+00 3.010010311908e+01 1.118383276543e-08 -1.488240512914e-09 0.000000000000e+00 
9.000000000000e+00 3.010016964927e+01 3.920310264308e-07 -1.628382258801e-09 0.000000000000e+00 
1.000000000000e+01 3.010017191253e+01 4.036250878583e-07 -1.931233059607e-09 0.000000000000e+00 
1.100000000000e+01 3.010021713589e+01 3.397219188770e-08 -2.084468778798e-09 0.000000000000e+00 
1.200000000000e+01 3.010030450106e+01 1.167896604487e-08 -2.063707666958e-09 0.000000000000e+00 
1.300000000000e+01 3.011140101232e+01 2.975457568957e-07 -2.196271424010e-09 0.000000000000e+00 
1.400000000000e+01 3.011140513214e+01 3.085411419101e-07 -2.499613356659e-09 0.000000000000e+00 
1.500000000000e+01 3.011152985785e+01 1.689750027256e-08 -2.586217207753e-09 0.000000000000e+00 
1.600000000000e+01 3.011175658563e+01 2.946240972778e-08 -2.465332556491e-09 0.000000000000e+00 
1.700000000000e+01 3.011180979022e+01 3.255471241128e-08 -2.352453158625e-09 0.000000000000e+00 
1.800000000000e+01 3.011194464105e+01 1.061617707062e-08 -2.219640737731e-09 0.000000000000e+00 
1.900000000000e+01 3.011259901776e+01 7.592242202392e-09 -2.051965048681e-09 0.000000000000e+00 
2.000000000000e+01 3.011277401842e+01 1.365799331571e-08 -1.867850630931e-09 0.000000000000e+00 
2.100000000000e+01 3.011289372974e+01 3.812198017917e-08 -1.695895985692e-09 0.000000000000e+00 
2.200000000000e+01 3.011292171260e+01 2.860460705007e-07 -1.726650510857e-09 0.000000000000e+00 
2.300000000000e+01 3.011292548282e+01 3.321978442744e-07 -1.980504661965e-09 0.000000000000e+00 
2.400000000000e+01 3.011294006846e+01 7.803156495908e-08 -2.067739538661e-09 0.000000000000e+00 
2.500000000000e+01 3.011362693991e+01 1.704161739179e-07 -2.000226432933e-09 0.000000000000e+00 
2.600000000000e+01 3.011363313566e+01 1.695922646602e-07 -1.954799457275e-09 0.000000000000e+00 
2.700000000000e+01 3.011504772001e+01 3.686396732397e-08 -1.711985228619e-09 0.000000000000e+00 
2.800000000000e+01 3.011506963560e+01 8.308599429608e-08 -1.313616405278e-09 0.000000000000e+00 
2.900000000000e+01 3.011508223709e+01 4.774850946962e-08 -8.789524436584e-10 0.000000000000e+00 
3.000000000000e+01 3.011549398198e+01 1.624499740878e-09 -6.349042617394e-10 0.000000000000e+00 
 ZONE T="TIME=5.184000000000e+05"
0.000000000000e+00 3.009727860295e+01 1.289071812854e-06 -4.188288059122e-10 0.000000000000e+00 
1.000000000000e+00 3.009727891174e+01 6.568740030792e-07 -6.271426554433e-10 0.000000000000e+00 
2.000000000000e+00 3.009731109336e+01 1.423042231019e-08 -8.294452803876e-10 0.000000000000e+00 
3.000000000000e+00 3.009751809302e+01 3.094973429749e-08 -8.228515628345e-10 0.000000000000e+00 
4.000000000000e+00 3.009753156583e+01 3.615074255177e-08 -8.233361862240e-10 0.000000000000e+00 
5.000000000000e+00 3.009758691439e+01 4.860179018842e-07 -9.791943532518e-10 0.000000000000e+00 
6.000000000000e+00 3.009758804224e+01 4.804416810730e-07 -1.286696472056e-09 0.000000000000e+00 
7.000000000000e+00 3.009804075925e+01 1.908276574962e-09 -1.426540362552e-09 0.000000000000e+00 
8.000000000000e+00 3.009977958494e+01 1.116132708648e-08 -1.400405530621e-09 0.000000000000e+00 
9.000000000000e+00 3.009984196714e+01 3.912346342711e-07 -1.526826930874e-09 0.000000000000e+00 
1.000000000000e+01 3.009984408922e+01 4.028049320430e-07 -1.810896653418e-09 0.000000000000e+00 
1.100000000000e+01 3.009988649739e+01 3.390287171195e-08 -1.949905374778e-09 0.000000000000e+00 
1.200000000000e+01 3.009996802123e+01 1.165490896459e-08 -1.922379512634e-09 0.000000000000e+00 
1.300000000000e+01 3.011028626575e+01 2.961065396440e-07 -2.047332193880e-09 0.000000000000e+00 
1.400000000000e+01 3.011029011451e+01 3.070486332692e-07 -2.341559630250e-09 0.000000000000e+00 
1.500000000000e+01 3.011040723706e+01 1.681582843784e-08 -2.435306493017e-09 0.000000000000e+00 
1.600000000000e+01 3.011062135596e+01 2.931990712960e-08 -2.336774974444e-09 0.000000000000e+00 
1.700000000000e+01 3.011067197927e+01 3.239715093342e-08 -2.248371357938e-09 0.000000000000e+00 
1.800000000000e+01 3.011080146799e+01 1.056464489833e-08 -2.146264889024e-09 0.000000000000e+00 
1.900000000000e+01 3.011143891523e+01 7.554523331736e-09 -2.025828648725e-09 0.000000000000e+00 
2.000000000000e+01 3.011161419832e+01 1.358952113561e-08 -1.906928620246e-09 0.000000000000e+00 
2.100000000000e+01 3.011173896836e+01 3.792923859215e-08 -1.810048207859e-09 0.000000000000e+00 
2.200000000000e+01 3.011176960408e+01 2.845963048858e-07 -1.908730002882e-09 0.000000000000e+00 
2.300000000000e+01 3.011177380724e+01 3.305138908322e-07 -2.218375481399e-09 0.000000000000e+00 
2.400000000000e+01 3.011179021118e+01 7.763600039778e-08 -2.380339600268e-09 0.000000000000e+00 
2.500000000000e+01 3.011260017202e+01 1.695497240199e-07 -2.433928658007e-09 0.000000000000e+00 
2.600000000000e+01 3.011260794671e+01 1.687300549857e-07 -2.565753204160e-09 0.000000000000e+00 
2.700000000000e+01 3.011454924604e+01 3.668291325947e-08 -2.628036594458e-09 0.000000000000e+00 
2.800000000000e+01 3.011458743983e+01 8.267810373192e-08 -2.655100094409e-09 0.000000000000e+00 
2.900000000000e+01 3.011461761014e+01 4.751417803796e-08 -2.710057106489e-09 0.000000000000e+00 
3.000000000000e+01 3.011638899098e+01 1.616609495134e-09 -2.731441852973e-09 0.000000000000e+00 
 ZONE T="TIME=6.048000000000e+05"
0.000000000000e+00 3.009706793296e+01 1.286806874396e-06 -4.097391407541e-10 0.000000000000e+00 
1.000000000000e+00 3.009706823505e+01 6.557198422503e-07 -6.125744587243e-10 0.000000000000e+00 
2.000000000000e+00 3.009709964448e+01 1.420537770684e-08 -8.077947339653e-10 0.000000000000e+00 
3.000000000000e+00 3.009730079832e+01 3.089438596910e-08 -7.979849382245e-10 0.000000000000e+00 
4.000000000000e+00 3.009731383727e+01 3.608600359053e-08 -7.952526789199e-10 0.000000000000e+00 
5.000000000000e+00 3.009736719264e+01 4.851413571895e-07 -9.450922907167e-10 0.000000000000e+00 
6.000000000000e+00 3.009736828218e+01 4.795750830642e-07 -1.243841903847e-09 0.000000000000e+00 
7.000000000000e+00 3.009780615618e+01 1.904671577015e-09 -1.378873345680e-09 0.000000000000e+00 
8.000000000000e+00 3.009948576832e+01 1.113609222348e-08 -1.353473370689e-09 0.000000000000e+00 
9.000000000000e+00 3.009954609425e+01 3.903443129488e-07 -1.478941173129e-09 0.000000000000e+00 
1.000000000000e+01 3.009954815260e+01 4.018881010567e-07 -1.758562763168e-09 0.000000000000e+00 
1.100000000000e+01 3.009958937612e+01 3.382543125016e-08 -1.896894996038e-09 0.000000000000e+00 
1.200000000000e+01 3.009966874499e+01 1.162809183531e-08 -1.878585381287e-09 0.000000000000e+00 
1.300000000000e+01 3.010979049265e+01 2.948051158636e-07 -2.034007329451e-09 0.000000000000e+00 
1.400000000000e+01 3.010979435814e+01 3.056989181694e-07 -2.379382943460e-09 0.000000000000e+00 
1.500000000000e+01 3.010991459193e+01 1.674161659153e-08 -2.537586466013e-09 0.000000000000e+00 
1.600000000000e+01 3.011014115658e+01 2.918965830803e-08 -2.512206456959e-09 0.000000000000e+00 
1.700000000000e+01 3.011019647220e+01 3.225303069328e-08 -2.498417275635e-09 0.000000000000e+00 
1.800000000000e+01 3.011034285396e+01 1.051749879276e-08 -2.474319574557e-09 0.000000000000e+00 
1.900000000000e+01 3.011109281150e+01 7.520362498213e-09 -2.440314340715e-09 0.000000000000e+00 
2.000000000000e+01 3.011130919173e+01 1.352789620591e-08 -2.416510039588e-09 0.000000000000e+00 
2.100000000000e+01 3.011147164506e+01 3.775700486071e-08 -2.418831897975e-09 0.000000000000e+00 
2.200000000000e+01 3.011151368286e+01 2.833037570169e-07 -2.612267554875e-09 0.000000000000e+00 
2.300000000000e+01 3.011151942221e+01 3.290127470978e-07 -3.010080689310e-09 0.000000000000e+00 
2.400000000000e+01 3.011154155968e+01 7.728332234614e-08 -3.267675204950e-09 0.000000000000e+00 
2.500000000000e+01 3.011267244086e+01 1.687742496985e-07 -3.430658792396e-09 0.000000000000e+00 
2.600000000000e+01 3.011268349757e+01 1.679582840673e-07 -3.682430981743e-09 0.000000000000e+00 
2.700000000000e+01 3.011549376851e+01 3.651258463177e-08 -3.886485006596e-09 0.000000000000e+00 
2.800000000000e+01 3.011555145035e+01 8.229413093372e-08 -4.073938123797e-09 0.000000000000e+00 
2.900000000000e+01 3.011559845328e+01 4.729349192642e-08 -4.289644640422e-09 0.000000000000e+00 
3.000000000000e+01 3.011844579230e+01 1.609087358107e-09 -4.390552719010e-09 0.000000000000e+00 
 ZONE T="TIME=6.912000000000e+05"
0.000000000000e+00 3.009689135799e+01 1.284661388436e-06 -4.074772333390e-10 0.000000000000e+00 
1.000000000000e+00 3.009689165841e+01 6.546265457576e-07 -6.101415671423e-10 0.000000000000e+00 
2.000000000000e+00 3.009692296753e+01 1.418165398102e-08 -8.072097363653e-10 0.000000000000e+00 
3.000000000000e+00 3.009712448183e+01 3.084231659101e-08 -8.016332753244e-10 0.000000000000e+00 
4.000000000000e+00 3.009713761685e+01 3.602515364642e-08 -8.034198434866e-10 0.000000000000e+00 
5.000000000000e+00 3.009719167525e+01 4.843219064406e-07 -9.565120109723e-10 0.000000000000e+00 
6.000000000000e+00 3.009719277709e+01 4.787649998900e-07 -1.257402532073e-09 0.000000000000e+00 
7.000000000000e+00 3.009763529126e+01 1.901394956443e-09 -1.397970733276e-09 0.000000000000e+00 
8.000000000000e+00 3.009934373647e+01 1.111592236097e-08 -1.384865616128e-09 0.000000000000e+00 
9.000000000000e+00 3.009940583173e+01 3.896368013207e-07 -1.526556464454e-09 0.000000000000e+00 
1.000000000000e+01 3.009940796125e+01 4.011596183143e-07 -1.822803709690e-09 0.000000000000e+00 
1.100000000000e+01 3.009945075928e+01 3.376400067302e-08 -1.978635164981e-09 0.000000000000e+00 
1.200000000000e+01 3.009953393850e+01 1.160691786487e-08 -1.987451292753e-09 0.000000000000e+00 
1.300000000000e+01 3.011034446050e+01 2.942359571518e-07 -2.217935195352e-09 0.000000000000e+00 
1.400000000000e+01 3.011034874868e+01 3.051085043067e-07 -2.686377797280e-09 0.000000000000e+00 
1.500000000000e+01 3.011048653569e+01 1.670865403356e-08 -2.972617621277e-09 0.000000000000e+00 
1.600000000000e+01 3.011075778454e+01 2.913074538530e-08 -3.072999925508e-09 0.000000000000e+00 
1.700000000000e+01 3.011082689587e+01 3.218769891132e-08 -3.187608794405e-09 0.000000000000e+00 
1.800000000000e+01 3.011101754667e+01 1.049611962202e-08 -3.295217936908e-09 0.000000000000e+00 
1.900000000000e+01 3.011203865481e+01 7.505394763847e-09 -3.402101103700e-09 0.000000000000e+00 
2.000000000000e+01 3.011234745332e+01 1.350146945280e-08 -3.530081042669e-09 0.000000000000e+00 
2.100000000000e+01 3.011259028158e+01 3.768496794363e-08 -3.691004742249e-09 0.000000000000e+00 
2.200000000000e+01 3.011265572859e+01 2.827675382072e-07 -4.051842212976e-09 0.000000000000e+00 
2.300000000000e+01 3.011266460196e+01 3.283902814933e-07 -4.624305705518e-09 0.000000000000e+00 
2.400000000000e+01 3.011269842339e+01 7.713699721974e-08 -5.055816962988e-09 0.000000000000e+00 
2.500000000000e+01 3.011446955478e+01 1.684479611271e-07 -5.405128066826e-09 0.000000000000e+00 
2.600000000000e+01 3.011448707177e+01 1.676334115706e-07 -5.868753492031e-09 0.000000000000e+00 
2.700000000000e+01 3.011899052905e+01 3.642860702991e-08 -6.324801895912e-09 0.000000000000e+00 
2.800000000000e+01 3.011908578223e+01 8.210447853470e-08 -6.802729231787e-09 0.000000000000e+00 
2.900000000000e+01 3.011916508870e+01 4.718435768474e-08 -7.328270678876e-09 0.000000000000e+00 
3.000000000000e+01 3.012408668551e+01 1.605237748060e-09 -7.589026144818e-09 0.000000000000e+00 
 ZONE T="TIME=7.776000000000e+05"
0.000000000000e+00 3.009680476019e+01 1.283245750056e-06 -4.137942582561e-10 0.000000000000e+00 
1.000000000000e+00 3.009680506527e+01 6.539051597405e-07 -6.221238167774e-10 0.000000000000e+00 
2.000000000000e+00 3.009683705417e+01 1.416600296947e-08 -8.301782593999e-10 0.000000000000e+00 
3.000000000000e+00 3.009704568006e+01 3.080845047069e-08 -8.355463178951e-10 0.000000000000e+00 
4.000000000000e+00 3.009705946288e+01 3.598564706779e-08 -8.486952304675e-10 0.000000000000e+00 
5.000000000000e+00 3.009711694627e+01 4.837956232002e-07 -1.014062959489e-09 0.000000000000e+00 
6.000000000000e+00 3.009711811185e+01 4.782448247684e-07 -1.328158905099e-09 0.000000000000e+00 
7.000000000000e+00 3.009758497746e+01 1.899415843503e-09 -1.483008156321e-09 0.000000000000e+00 
8.000000000000e+00 3.009940738236e+01 1.110744086894e-08 -1.488721306340e-09 0.000000000000e+00 
9.000000000000e+00 3.009947465216e+01 3.893453213378e-07 -1.656982030031e-09 0.000000000000e+00 
1.000000000000e+01 3.009947696732e+01 4.008596464259e-07 -1.984049846270e-09 0.000000000000e+00 
1.100000000000e+01 3.009952359787e+01 3.373887318599e-08 -2.167885282575e-09 0.000000000000e+00 
1.200000000000e+01 3.009961523738e+01 1.159841127007e-08 -2.207667731972e-09 0.000000000000e+00 
1.300000000000e+01 3.011172155220e+01 2.946766675312e-07 -2.514681552051e-09 0.000000000000e+00 
1.400000000000e+01 3.011172646276e+01 3.055653704888e-07 -3.105786101395e-09 0.000000000000e+00 
1.500000000000e+01 3.011188702591e+01 1.673299963223e-08 -3.505471185949e-09 0.000000000000e+00 
1.600000000000e+01 3.011221056978e+01 2.917184338651e-08 -3.704689593500e-09 0.000000000000e+00 
1.700000000000e+01 3.011229473879e+01 3.223295618253e-08 -3.919487736051e-09 0.000000000000e+00 
1.800000000000e+01 3.011253131739e+01 1.051092184996e-08 -4.126450207343e-09 0.000000000000e+00 
1.900000000000e+01 3.011382126137e+01 7.516976120815e-09 -4.331283897259e-09 0.000000000000e+00 
2.000000000000e+01 3.011421733564e+01 1.352328278399e-08 -4.557032991494e-09 0.000000000000e+00 
2.100000000000e+01 3.011453274004e+01 3.774883366492e-08 -4.816954291334e-09 0.000000000000e+00 
2.200000000000e+01 3.011461853637e+01 2.832537855890e-07 -5.293155129538e-09 0.000000000000e+00 
2.300000000000e+01 3.011463009266e+01 3.289554622063e-07 -5.998951829981e-09 0.000000000000e+00 