 TITLE = "Profiles along polylines"
 VARIABLES = "DIST" "SATURATION1" 
 ZONE T="TIME=0.000000000000e+00"
3.163371972657e+00 1.000000000000e+00 
3.183375068191e+00 1.000000000000e+00 
3.203378163725e+00 1.000000000000e+00 
3.223381259260e+00 1.000000000000e+00 
3.243384354794e+00 1.000000000000e+00 
4.057926240234e+00 1.000000000000e+00 
4.077262565918e+00 1.000000000000e+00 
4.096598891601e+00 1.000000000000e+00 
4.115935217284e+00 1.000000000000e+00 
4.135271542967e+00 1.000000000000e+00 
4.952480507812e+00 1.000000000000e+00 
4.971150063644e+00 1.000000000000e+00 
4.989819619476e+00 1.000000000000e+00 
5.008489175308e+00 1.000000000000e+00 
5.027158731140e+00 1.000000000000e+00 
5.847034775391e+00 1.000000000000e+00 
5.865037561371e+00 1.000000000000e+00 
5.883040347352e+00 1.000000000000e+00 
5.901043133333e+00 1.000000000000e+00 
5.919045919314e+00 1.000000000000e+00 
6.741589042969e+00 1.000000000000e+00 
6.758925059099e+00 1.000000000000e+00 
6.776261075228e+00 1.000000000000e+00 
6.793597091358e+00 1.000000000000e+00 
6.810933107488e+00 1.000000000000e+00 
7.636143310546e+00 1.000000000000e+00 
7.652812556825e+00 1.000000000000e+00 
7.669481803103e+00 1.000000000000e+00 
7.686151049382e+00 1.000000000000e+00 
7.702820295661e+00 1.000000000000e+00 
8.530697578124e+00 1.000000000000e+00 
8.546700054551e+00 1.000000000000e+00 
8.562702530979e+00 1.000000000000e+00 
8.578705007406e+00 1.000000000000e+00 
8.594707483834e+00 1.000000000000e+00 
9.425251845701e+00 1.000000000000e+00 
9.440587552278e+00 1.000000000000e+00 
9.455923258854e+00 1.000000000000e+00 
9.471258965430e+00 1.000000000000e+00 
9.486594672006e+00 1.000000000000e+00 
1.031980611328e+01 1.000000000000e+00 
1.033447505000e+01 1.000000000000e+00 
1.034914398673e+01 1.000000000000e+00 
1.036381292345e+01 1.000000000000e+00 
1.037848186018e+01 1.000000000000e+00 
1.121436038085e+01 1.000000000000e+00 
1.122836254773e+01 1.000000000000e+00 
1.124236471460e+01 1.000000000000e+00 
1.125636688148e+01 1.000000000000e+00 
1.127036904835e+01 1.000000000000e+00 
1.210891464843e+01 1.000000000000e+00 
1.212225004545e+01 1.000000000000e+00 
1.213558544248e+01 1.000000000000e+00 
1.214892083950e+01 1.000000000000e+00 
1.216225623652e+01 1.000000000000e+00 
1.300346891600e+01 1.000000000000e+00 
1.301613754318e+01 1.000000000000e+00 
1.302880617035e+01 1.000000000000e+00 
1.304147479752e+01 1.000000000000e+00 
1.305414342469e+01 1.000000000000e+00 
1.389802318358e+01 1.000000000000e+00 
1.391002504090e+01 1.000000000000e+00 
1.392202689822e+01 1.000000000000e+00 
1.393402875554e+01 1.000000000000e+00 
1.394603061286e+01 1.000000000000e+00 
1.479257745116e+01 1.000000000000e+00 
1.480391253862e+01 1.000000000000e+00 
1.481524762609e+01 1.000000000000e+00 
1.482658271356e+01 1.000000000000e+00 
1.483791780103e+01 1.000000000000e+00 
1.568713171873e+01 1.000000000000e+00 
1.569780003635e+01 1.000000000000e+00 
1.570846835397e+01 1.000000000000e+00 
1.571913667159e+01 1.000000000000e+00 
1.572980498920e+01 1.000000000000e+00 
1.658168598631e+01 1.000000000000e+00 
1.659168753407e+01 1.000000000000e+00 
1.660168908184e+01 1.000000000000e+00 
1.661169062961e+01 1.000000000000e+00 
1.662169217737e+01 1.000000000000e+00 
1.747624025389e+01 1.000000000000e+00 
1.748557503180e+01 1.000000000000e+00 
1.749490980972e+01 1.000000000000e+00 
1.750424458763e+01 1.000000000000e+00 
1.751357936555e+01 1.000000000000e+00 
1.837079452147e+01 1.000000000000e+00 
1.837946252953e+01 1.000000000000e+00 
1.838813053759e+01 1.000000000000e+00 
1.839679854566e+01 1.000000000000e+00 
1.840546655372e+01 1.000000000000e+00 
1.926534878904e+01 1.000000000000e+00 
1.927335002726e+01 1.000000000000e+00 
1.928135126547e+01 1.000000000000e+00 
1.928935250369e+01 1.000000000000e+00 
1.929735374190e+01 1.000000000000e+00 
2.015990305662e+01 1.000000000000e+00 
2.016723752499e+01 1.000000000000e+00 
2.017457199335e+01 1.000000000000e+00 
2.018190646171e+01 1.000000000000e+00 
2.018924093007e+01 1.000000000000e+00 
2.105445732420e+01 1.000000000000e+00 
2.106112502272e+01 1.000000000000e+00 
2.106779272123e+01 1.000000000000e+00 
2.107446041974e+01 1.000000000000e+00 
2.108112811825e+01 1.000000000000e+00 
2.194901159178e+01 1.000000000000e+00 
2.195501252044e+01 1.000000000000e+00 
2.196101344910e+01 1.000000000000e+00 
2.196701437776e+01 1.000000000000e+00 
2.197301530642e+01 1.000000000000e+00 
2.284356585936e+01 1.000000000000e+00 
2.284890001817e+01 1.000000000000e+00 
2.285423417698e+01 1.000000000000e+00 
2.285956833579e+01 1.000000000000e+00 
2.286490249460e+01 1.000000000000e+00 
2.373812012694e+01 1.000000000000e+00 
2.374278751590e+01 1.000000000000e+00 
2.374745490486e+01 1.000000000000e+00 
2.375212229382e+01 1.000000000000e+00 
2.375678968277e+01 1.000000000000e+00 
2.463267439452e+01 1.000000000000e+00 
2.463667501363e+01 1.000000000000e+00 
2.464067563274e+01 1.000000000000e+00 
2.464467625184e+01 1.000000000000e+00 
2.464867687095e+01 1.000000000000e+00 
2.552722866210e+01 1.000000000000e+00 
2.553056251136e+01 1.000000000000e+00 
2.553389636061e+01 1.000000000000e+00 
2.553723020987e+01 1.000000000000e+00 
2.554056405912e+01 1.000000000000e+00 
2.642178292968e+01 1.000000000000e+00 
2.642445000909e+01 1.000000000000e+00 
2.642711708849e+01 1.000000000000e+00 
2.642978416790e+01 1.000000000000e+00 
2.643245124730e+01 1.000000000000e+00 
2.731633719726e+01 1.000000000000e+00 
2.731833750681e+01 1.000000000000e+00 
2.732033781637e+01 1.000000000000e+00 
2.732233812592e+01 1.000000000000e+00 
2.732433843547e+01 1.000000000000e+00 
2.821089146484e+01 1.000000000000e+00 
2.821222500454e+01 1.000000000000e+00 
2.821355854425e+01 1.000000000000e+00 
2.821489208395e+01 1.000000000000e+00 
2.821622562365e+01 1.000000000000e+00 
2.910544573242e+01 1.000000000000e+00 
2.910611250227e+01 1.000000000000e+00 
2.910677927212e+01 1.000000000000e+00 
2.910744604197e+01 1.000000000000e+00 
2.910811281182e+01 1.000000000000e+00 
3.000000000000e+01 1.000000000000e+00 
3.000000000000e+01 1.000000000000e+00 
3.000000000000e+01 1.000000000000e+00 
3.000000000000e+01 1.000000000000e+00 
3.000000000000e+01 1.000000000000e+00 
3.002500000000e+01 9.876207709446e-01 
3.002500000000e+01 9.876207709446e-01 
3.002500000000e+01 9.876207709446e-01 
3.002500000000e+01 9.876207709446e-01 
3.002500000000e+01 9.876207709446e-01 
3.005000000000e+01 9.697756439369e-01 
3.005000000000e+01 9.697756439369e-01 
3.005000000000e+01 9.697756439369e-01 
3.005000000000e+01 9.697756439369e-01 
3.005000000000e+01 9.697756439369e-01 
3.007500000000e+01 9.507134089444e-01 
3.007500000000e+01 9.507134089444e-01 
3.007500000000e+01 9.507134089444e-01 
3.007500000000e+01 9.507134089444e-01 
3.007500000000e+01 9.507134089444e-01 
3.010000000000e+01 9.315621650298e-01 
3.010000000000e+01 9.315621650298e-01 
3.010000000000e+01 9.315621650298e-01 
3.010000000000e+01 9.315621650298e-01 
3.010000000000e+01 9.315621650298e-01 
3.012500000000e+01 9.128758324042e-01 
3.012500000000e+01 9.128758324042e-01 
3.012500000000e+01 9.128758324042e-01 
3.012500000000e+01 9.128758324042e-01 
3.012500000000e+01 9.128758324042e-01 
3.015000000000e+01 8.949248043380e-01 
3.015000000000e+01 8.949248043380e-01 
3.015000000000e+01 8.949248043380e-01 
3.015000000000e+01 8.949248043380e-01 
3.015000000000e+01 8.949248043380e-01 
3.017500000000e+01 8.778290027968e-01 
3.017500000000e+01 8.778290027968e-01 
3.017500000000e+01 8.778290027968e-01 
3.017500000000e+01 8.778290027968e-01 
3.017500000000e+01 8.778290027968e-01 
3.020000000000e+01 8.616255702900e-01 
3.020000000000e+01 8.616255702900e-01 
3.020000000000e+01 8.616255702900e-01 
3.020000000000e+01 8.616255702900e-01 
3.020000000000e+01 8.616255702900e-01 
3.022500000000e+01 8.463059583920e-01 
3.022500000000e+01 8.463059583920e-01 
3.022500000000e+01 8.463059583920e-01 
3.022500000000e+01 8.463059583920e-01 
3.022500000000e+01 8.463059583920e-01 
3.025000000000e+01 8.318370344398e-01 
3.025000000000e+01 8.318370344398e-01 
3.025000000000e+01 8.318370344398e-01 
3.025000000000e+01 8.318370344398e-01 
3.025000000000e+01 8.318370344398e-01 
3.027500000000e+01 8.181733156316e-01 
3.027500000000e+01 8.181733156316e-01 
3.027500000000e+01 8.181733156316e-01 
3.027500000000e+01 8.181733156316e-01 
3.027500000000e+01 8.181733156316e-01 
3.030000000000e+01 8.052640970350e-01 
3.030000000000e+01 8.052640970350e-01 
3.030000000000e+01 8.052640970350e-01 
3.030000000000e+01 8.052640970350e-01 
3.030000000000e+01 8.052640970350e-01 
3.032500000000e+01 7.930575753856e-01 
3.032500000000e+01 7.930575753856e-01 
3.032500000000e+01 7.930575753856e-01 
3.032500000000e+01 7.930575753856e-01 
3.032500000000e+01 7.930575753856e-01 
3.035000000000e+01 7.815031815402e-01 
3.035000000000e+01 7.815031815402e-01 
3.035000000000e+01 7.815031815402e-01 
3.035000000000e+01 7.815031815402e-01 
3.035000000000e+01 7.815031815402e-01 
3.037500000000e+01 7.705528376764e-01 
3.037500000000e+01 7.705528376764e-01 
3.037500000000e+01 7.705528376764e-01 
3.037500000000e+01 7.705528376764e-01 
3.037500000000e+01 7.705528376764e-01 
3.040000000000e+01 7.601615689674e-01 
3.040000000000e+01 7.601615689674e-01 
3.040000000000e+01 7.601615689674e-01 
3.040000000000e+01 7.601615689674e-01 
3.040000000000e+01 7.601615689674e-01 
3.042500000000e+01 7.502877306002e-01 
3.042500000000e+01 7.502877306002e-01 
3.042500000000e+01 7.502877306002e-01 
3.042500000000e+01 7.502877306002e-01 
3.042500000000e+01 7.502877306002e-01 
3.045000000000e+01 7.408930096824e-01 
3.045000000000e+01 7.408930096824e-01 
3.045000000000e+01 7.408930096824e-01 
3.045000000000e+01 7.408930096824e-01 
3.045000000000e+01 7.408930096824e-01 
3.047500000000e+01 7.319422999608e-01 
3.047500000000e+01 7.319422999608e-01 
3.047500000000e+01 7.319422999608e-01 
3.047500000000e+01 7.319422999608e-01 
3.047500000000e+01 7.319422999608e-01 
3.050000000000e+01 7.234035093991e-01 
3.050000000000e+01 7.234035093991e-01 
3.050000000000e+01 7.234035093991e-01 
3.050000000000e+01 7.234035093991e-01 
3.050000000000e+01 7.234035093991e-01 
3.052500000000e+01 7.152473371957e-01 
3.052500000000e+01 7.152473371957e-01 
3.052500000000e+01 7.152473371957e-01 
3.052500000000e+01 7.152473371957e-01 
3.052500000000e+01 7.152473371957e-01 
3.055000000000e+01 7.074470422112e-01 
3.055000000000e+01 7.074470422112e-01 
3.055000000000e+01 7.074470422112e-01 
3.055000000000e+01 7.074470422112e-01 
3.055000000000e+01 7.074470422112e-01 
3.057500000000e+01 6.999782156504e-01 
3.057500000000e+01 6.999782156504e-01 
3.057500000000e+01 6.999782156504e-01 
3.057500000000e+01 6.999782156504e-01 
3.057500000000e+01 6.999782156504e-01 
3.060000000000e+01 6.928185651596e-01 
3.060000000000e+01 6.928185651596e-01 
3.060000000000e+01 6.928185651596e-01 
3.060000000000e+01 6.928185651596e-01 
3.060000000000e+01 6.928185651596e-01 
3.062500000000e+01 6.859477139679e-01 
3.062500000000e+01 6.859477139679e-01 
3.062500000000e+01 6.859477139679e-01 
3.062500000000e+01 6.859477139679e-01 
3.062500000000e+01 6.859477139679e-01 
3.065000000000e+01 6.793470165436e-01 
3.065000000000e+01 6.793470165436e-01 
3.065000000000e+01 6.793470165436e-01 
3.065000000000e+01 6.793470165436e-01 
3.065000000000e+01 6.793470165436e-01 
3.067500000000e+01 6.729993909360e-01 
3.067500000000e+01 6.729993909360e-01 
3.067500000000e+01 6.729993909360e-01 
3.067500000000e+01 6.729993909360e-01 
3.067500000000e+01 6.729993909360e-01 
3.070000000000e+01 6.668891672206e-01 
3.070000000000e+01 6.668891672206e-01 
3.070000000000e+01 6.668891672206e-01 
3.070000000000e+01 6.668891672206e-01 
3.070000000000e+01 6.668891672206e-01 
3.072500000000e+01 6.610019510587e-01 
3.072500000000e+01 6.610019510587e-01 
3.072500000000e+01 6.610019510587e-01 
3.072500000000e+01 6.610019510587e-01 
3.072500000000e+01 6.610019510587e-01 
3.075000000000e+01 6.553245011865e-01 
3.075000000000e+01 6.553245011865e-01 
3.075000000000e+01 6.553245011865e-01 
3.075000000000e+01 6.553245011865e-01 
3.075000000000e+01 6.553245011865e-01 
3.077500000000e+01 6.498446195878e-01 
3.077500000000e+01 6.498446195878e-01 
3.077500000000e+01 6.498446195878e-01 
3.077500000000e+01 6.498446195878e-01 
3.077500000000e+01 6.498446195878e-01 
3.080000000000e+01 6.445510531188e-01 
3.080000000000e+01 6.445510531188e-01 
3.080000000000e+01 6.445510531188e-01 
3.080000000000e+01 6.445510531188e-01 
3.080000000000e+01 6.445510531188e-01 
3.082500000000e+01 6.394334054150e-01 
3.082500000000e+01 6.394334054150e-01 
3.082500000000e+01 6.394334054150e-01 
3.082500000000e+01 6.394334054150e-01 
3.082500000000e+01 6.394334054150e-01 
3.085000000000e+01 6.344820579917e-01 
3.085000000000e+01 6.344820579917e-01 
3.085000000000e+01 6.344820579917e-01 
3.085000000000e+01 6.344820579917e-01 
3.085000000000e+01 6.344820579917e-01 
3.087500000000e+01 6.296880995462e-01 
3.087500000000e+01 6.296880995462e-01 
3.087500000000e+01 6.296880995462e-01 
3.087500000000e+01 6.296880995462e-01 
3.087500000000e+01 6.296880995462e-01 
3.090000000000e+01 6.250432625624e-01 
3.090000000000e+01 6.250432625624e-01 
3.090000000000e+01 6.250432625624e-01 
3.090000000000e+01 6.250432625624e-01 
3.090000000000e+01 6.250432625624e-01 
3.092500000000e+01 6.205398664126e-01 
3.092500000000e+01 6.205398664126e-01 
3.092500000000e+01 6.205398664126e-01 
3.092500000000e+01 6.205398664126e-01 
3.092500000000e+01 6.205398664126e-01 
3.095000000000e+01 6.161707662369e-01 
3.095000000000e+01 6.161707662369e-01 
3.095000000000e+01 6.161707662369e-01 
3.095000000000e+01 6.161707662369e-01 
3.095000000000e+01 6.161707662369e-01 
3.097500000000e+01 6.119293069613e-01 
3.097500000000e+01 6.119293069613e-01 
3.097500000000e+01 6.119293069613e-01 
3.097500000000e+01 6.119293069613e-01 
3.097500000000e+01 6.119293069613e-01 
3.100000000000e+01 6.078092818871e-01 
3.100000000000e+01 6.078092818871e-01 
3.100000000000e+01 6.078092818871e-01 
3.100000000000e+01 6.078092818871e-01 
3.100000000000e+01 6.078092818871e-01 
3.102500000000e+01 6.038048953494e-01 
3.102500000000e+01 6.038048953494e-01 
3.102500000000e+01 6.038048953494e-01 
3.102500000000e+01 6.038048953494e-01 
3.102500000000e+01 6.038048953494e-01 
3.105000000000e+01 5.999107290013e-01 
3.105000000000e+01 5.999107290013e-01 
3.105000000000e+01 5.999107290013e-01 
3.105000000000e+01 5.999107290013e-01 
3.105000000000e+01 5.999107290013e-01 
3.107500000000e+01 5.961217113309e-01 
3.107500000000e+01 5.961217113309e-01 
3.107500000000e+01 5.961217113309e-01 
3.107500000000e+01 5.961217113309e-01 
3.107500000000e+01 5.961217113309e-01 
3.110000000000e+01 5.924330900627e-01 
3.110000000000e+01 5.924330900627e-01 
3.110000000000e+01 5.924330900627e-01 
3.110000000000e+01 5.924330900627e-01 
3.110000000000e+01 5.924330900627e-01 
3.112500000000e+01 5.888404071392e-01 
3.112500000000e+01 5.888404071392e-01 
3.112500000000e+01 5.888404071392e-01 
3.112500000000e+01 5.888404071392e-01 
3.112500000000e+01 5.888404071392e-01 
3.115000000000e+01 5.853394760078e-01 
3.115000000000e+01 5.853394760078e-01 
3.115000000000e+01 5.853394760078e-01 
3.115000000000e+01 5.853394760078e-01 
3.115000000000e+01 5.853394760078e-01 
3.117500000000e+01 5.819263609758e-01 
3.117500000000e+01 5.819263609758e-01 
3.117500000000e+01 5.819263609758e-01 
3.117500000000e+01 5.819263609758e-01 
3.117500000000e+01 5.819263609758e-01 
3.120000000000e+01 5.785973584173e-01 
3.120000000000e+01 5.785973584173e-01 
3.120000000000e+01 5.785973584173e-01 
3.120000000000e+01 5.785973584173e-01 
3.120000000000e+01 5.785973584173e-01 
3.122500000000e+01 5.753489796460e-01 
3.122500000000e+01 5.753489796460e-01 
3.122500000000e+01 5.753489796460e-01 
3.122500000000e+01 5.753489796460e-01 
3.122500000000e+01 5.753489796460e-01 
3.125000000000e+01 5.721779352840e-01 
3.125000000000e+01 5.721779352840e-01 
3.125000000000e+01 5.721779352840e-01 
3.125000000000e+01 5.721779352840e-01 
3.125000000000e+01 5.721779352840e-01 
3.127500000000e+01 5.690811209785e-01 
3.127500000000e+01 5.690811209785e-01 
3.127500000000e+01 5.690811209785e-01 
3.127500000000e+01 5.690811209785e-01 
3.127500000000e+01 5.690811209785e-01 
3.130000000000e+01 5.660556043336e-01 
3.130000000000e+01 5.660556043336e-01 
3.130000000000e+01 5.660556043336e-01 
3.130000000000e+01 5.660556043336e-01 
3.130000000000e+01 5.660556043336e-01 
3.132500000000e+01 5.630986129391e-01 
3.132500000000e+01 5.630986129391e-01 
3.132500000000e+01 5.630986129391e-01 
3.132500000000e+01 5.630986129391e-01 
3.132500000000e+01 5.630986129391e-01 
3.135000000000e+01 5.602075233904e-01 
3.135000000000e+01 5.602075233904e-01 
3.135000000000e+01 5.602075233904e-01 
3.135000000000e+01 5.602075233904e-01 
3.135000000000e+01 5.602075233904e-01 
3.137500000000e+01 5.573798512060e-01 
3.137500000000e+01 5.573798512060e-01 
3.137500000000e+01 5.573798512060e-01 
3.137500000000e+01 5.573798512060e-01 
3.137500000000e+01 5.573798512060e-01 
3.140000000000e+01 5.546132415581e-01 
3.140000000000e+01 5.546132415581e-01 
3.140000000000e+01 5.546132415581e-01 
3.140000000000e+01 5.546132415581e-01 
3.140000000000e+01 5.546132415581e-01 
3.142500000000e+01 5.519054607414e-01 
3.142500000000e+01 5.519054607414e-01 
3.142500000000e+01 5.519054607414e-01 
3.142500000000e+01 5.519054607414e-01 
3.142500000000e+01 5.519054607414e-01 
3.145000000000e+01 5.492543883110e-01 
3.145000000000e+01 5.492543883110e-01 
3.145000000000e+01 5.492543883110e-01 
3.145000000000e+01 5.492543883110e-01 
3.145000000000e+01 5.492543883110e-01 
3.147500000000e+01 5.466580098318e-01 
3.147500000000e+01 5.466580098318e-01 
3.147500000000e+01 5.466580098318e-01 
3.147500000000e+01 5.466580098318e-01 
3.147500000000e+01 5.466580098318e-01 
3.150000000000e+01 5.441144101810e-01 
3.150000000000e+01 5.441144101810e-01 
3.150000000000e+01 5.441144101810e-01 
3.150000000000e+01 5.441144101810e-01 
3.150000000000e+01 5.441144101810e-01 
3.152500000000e+01 5.416217673588e-01 
3.152500000000e+01 5.416217673588e-01 
3.152500000000e+01 5.416217673588e-01 
3.152500000000e+01 5.416217673588e-01 
3.152500000000e+01 5.416217673588e-01 
3.155000000000e+01 5.391783467591e-01 
3.155000000000e+01 5.391783467591e-01 
3.155000000000e+01 5.391783467591e-01 
3.155000000000e+01 5.391783467591e-01 
3.155000000000e+01 5.391783467591e-01 
3.157500000000e+01 5.367824958643e-01 
3.157500000000e+01 5.367824958643e-01 
3.157500000000e+01 5.367824958643e-01 
3.157500000000e+01 5.367824958643e-01 
3.157500000000e+01 5.367824958643e-01 
3.160000000000e+01 5.344326393247e-01 
3.160000000000e+01 5.344326393247e-01 
3.160000000000e+01 5.344326393247e-01 
3.160000000000e+01 5.344326393247e-01 
3.160000000000e+01 5.344326393247e-01 
3.162500000000e+01 5.321272743928e-01 
3.162500000000e+01 5.321272743928e-01 
3.162500000000e+01 5.321272743928e-01 
3.162500000000e+01 5.321272743928e-01 
3.162500000000e+01 5.321272743928e-01 
3.165000000000e+01 5.298649666811e-01 
3.165000000000e+01 5.298649666811e-01 
3.165000000000e+01 5.298649666811e-01 
3.165000000000e+01 5.298649666811e-01 
3.165000000000e+01 5.298649666811e-01 
3.167500000000e+01 5.276443462180e-01 
3.167500000000e+01 5.276443462180e-01 
3.167500000000e+01 5.276443462180e-01 
3.167500000000e+01 5.276443462180e-01 
3.167500000000e+01 5.276443462180e-01 
3.170000000000e+01 5.254641037767e-01 
3.170000000000e+01 5.254641037767e-01 
3.170000000000e+01 5.254641037767e-01 
3.170000000000e+01 5.254641037767e-01 
3.170000000000e+01 5.254641037767e-01 
3.172500000000e+01 5.233229874560e-01 
3.172500000000e+01 5.233229874560e-01 
3.172500000000e+01 5.233229874560e-01 
3.172500000000e+01 5.233229874560e-01 
3.172500000000e+01 5.233229874560e-01 
3.175000000000e+01 5.212197994921e-01 
3.175000000000e+01 5.212197994921e-01 
3.175000000000e+01 5.212197994921e-01 
3.175000000000e+01 5.212197994921e-01 
3.175000000000e+01 5.212197994921e-01 
3.177500000000e+01 5.191533932842e-01 
3.177500000000e+01 5.191533932842e-01 
3.177500000000e+01 5.191533932842e-01 
3.177500000000e+01 5.191533932842e-01 
3.177500000000e+01 5.191533932842e-01 
3.180000000000e+01 5.171226706164e-01 
3.180000000000e+01 5.171226706164e-01 
3.180000000000e+01 5.171226706164e-01 
3.180000000000e+01 5.171226706164e-01 
3.180000000000e+01 5.171226706164e-01 
3.182500000000e+01 5.151265790614e-01 
3.182500000000e+01 5.151265790614e-01 
3.182500000000e+01 5.151265790614e-01 
3.182500000000e+01 5.151265790614e-01 
3.182500000000e+01 5.151265790614e-01 
3.185000000000e+01 5.131641095520e-01 
3.185000000000e+01 5.131641095520e-01 
3.185000000000e+01 5.131641095520e-01 
3.185000000000e+01 5.131641095520e-01 
3.185000000000e+01 5.131641095520e-01 
3.187500000000e+01 5.112342941078e-01 
3.187500000000e+01 5.112342941078e-01 
3.187500000000e+01 5.112342941078e-01 
3.187500000000e+01 5.112342941078e-01 
3.187500000000e+01 5.112342941078e-01 
3.190000000000e+01 5.093362037054e-01 
3.190000000000e+01 5.093362037054e-01 
3.190000000000e+01 5.093362037054e-01 
3.190000000000e+01 5.093362037054e-01 
3.190000000000e+01 5.093362037054e-01 
3.192500000000e+01 5.074689462822e-01 
3.192500000000e+01 5.074689462822e-01 
3.192500000000e+01 5.074689462822e-01 
3.192500000000e+01 5.074689462822e-01 
3.192500000000e+01 5.074689462822e-01 
3.195000000000e+01 5.056316648631e-01 
3.195000000000e+01 5.056316648631e-01 
3.195000000000e+01 5.056316648631e-01 
3.195000000000e+01 5.056316648631e-01 
3.195000000000e+01 5.056316648631e-01 
3.197500000000e+01 5.038235358020e-01 
3.197500000000e+01 5.038235358020e-01 
3.197500000000e+01 5.038235358020e-01 
3.197500000000e+01 5.038235358020e-01 
3.197500000000e+01 5.038235358020e-01 
3.200000000000e+01 5.008664213490e-01 
3.200000000000e+01 5.008790560817e-01 
3.200000000000e+01 5.008853570435e-01 
3.200000000000e+01 5.008727441711e-01 
3.200000000000e+01 5.008916470191e-01 
3.323267439453e+01 4.370866046620e-01 
3.323667501364e+01 4.369281191341e-01 
3.324067563275e+01 4.367698792264e-01 
3.324467625185e+01 4.366118842916e-01 
3.324867687096e+01 4.364541336847e-01 
3.446534878906e+01 3.995439431454e-01 
3.447335002728e+01 3.993407784404e-01 
3.448135126549e+01 3.991380880867e-01 
3.448935250370e+01 3.989358701666e-01 
3.449735374192e+01 3.987341227733e-01 
3.569802318359e+01 3.733317407188e-01 
3.571002504091e+01 3.731113032255e-01 
3.572202689824e+01 3.728914739700e-01 
3.573402875556e+01 3.726722500330e-01 
3.574603061288e+01 3.724536285149e-01 
3.693069757813e+01 3.535978115059e-01 
3.694670005455e+01 3.533709693545e-01 
3.696270253098e+01 3.531448151273e-01 
3.697870500741e+01 3.529193451902e-01 
3.699470748384e+01 3.526945559367e-01 
3.816337197266e+01 3.379699853810e-01 
3.818337506819e+01 3.377416054148e-01 
3.820337816373e+01 3.375139618131e-01 
3.822338125926e+01 3.372870504384e-01 
3.824338435479e+01 3.370608671861e-01 
 TITLE = "Profiles along polylines"
 VARIABLES = "DIST" "SATURATION1" 
 ZONE T="TIME=1.797693134862e+308"
3.163371972657e+00 1.000000000000e+00 
3.183375068191e+00 1.000000000000e+00 
3.203378163725e+00 1.000000000000e+00 
3.223381259260e+00 1.000000000000e+00 
3.243384354794e+00 1.000000000000e+00 
4.057926240234e+00 1.000000000000e+00 
4.077262565918e+00 1.000000000000e+00 
4.096598891601e+00 1.000000000000e+00 
4.115935217284e+00 1.000000000000e+00 
4.135271542967e+00 1.000000000000e+00 
4.952480507812e+00 1.000000000000e+00 
4.971150063644e+00 1.000000000000e+00 
4.989819619476e+00 1.000000000000e+00 
5.008489175308e+00 1.000000000000e+00 
5.027158731140e+00 1.000000000000e+00 
5.847034775391e+00 1.000000000000e+00 
5.865037561371e+00 1.000000000000e+00 
5.883040347352e+00 1.000000000000e+00 
5.901043133333e+00 1.000000000000e+00 
5.919045919314e+00 1.000000000000e+00 
6.741589042969e+00 1.000000000000e+00 
6.758925059099e+00 1.000000000000e+00 
6.776261075228e+00 1.000000000000e+00 
6.793597091358e+00 1.000000000000e+00 
6.810933107488e+00 1.000000000000e+00 
7.636143310546e+00 1.000000000000e+00 
7.652812556825e+00 1.000000000000e+00 
7.669481803103e+00 1.000000000000e+00 
7.686151049382e+00 1.000000000000e+00 
7.702820295661e+00 1.000000000000e+00 
8.530697578124e+00 1.000000000000e+00 
8.546700054551e+00 1.000000000000e+00 
8.562702530979e+00 1.000000000000e+00 
8.578705007406e+00 1.000000000000e+00 
8.594707483834e+00 1.000000000000e+00 
9.425251845701e+00 1.000000000000e+00 
9.440587552278e+00 1.000000000000e+00 
9.455923258854e+00 1.000000000000e+00 
9.471258965430e+00 1.000000000000e+00 
9.486594672006e+00 1.000000000000e+00 
1.031980611328e+01 1.000000000000e+00 
1.033447505000e+01 1.000000000000e+00 
1.034914398673e+01 1.000000000000e+00 
1.036381292345e+01 1.000000000000e+00 
1.037848186018e+01 1.000000000000e+00 
1.121436038085e+01 1.000000000000e+00 
1.122836254773e+01 1.000000000000e+00 
1.124236471460e+01 1.000000000000e+00 
1.125636688148e+01 1.000000000000e+00 
1.127036904835e+01 1.000000000000e+00 
1.210891464843e+01 1.000000000000e+00 
1.212225004545e+01 1.000000000000e+00 
1.213558544248e+01 1.000000000000e+00 
1.214892083950e+01 1.000000000000e+00 
1.216225623652e+01 1.000000000000e+00 
1.300346891600e+01 1.000000000000e+00 
1.301613754318e+01 1.000000000000e+00 
1.302880617035e+01 1.000000000000e+00 
1.304147479752e+01 1.000000000000e+00 
1.305414342469e+01 1.000000000000e+00 
1.389802318358e+01 1.000000000000e+00 
1.391002504090e+01 1.000000000000e+00 
1.392202689822e+01 1.000000000000e+00 
1.393402875554e+01 1.000000000000e+00 
1.394603061286e+01 1.000000000000e+00 
1.479257745116e+01 1.000000000000e+00 
1.480391253862e+01 1.000000000000e+00 
1.481524762609e+01 1.000000000000e+00 
1.482658271356e+01 1.000000000000e+00 
1.483791780103e+01 1.000000000000e+00 
1.568713171873e+01 1.000000000000e+00 
1.569780003635e+01 1.000000000000e+00 
1.570846835397e+01 1.000000000000e+00 
1.571913667159e+01 1.000000000000e+00 
1.572980498920e+01 1.000000000000e+00 
1.658168598631e+01 1.000000000000e+00 
1.659168753407e+01 1.000000000000e+00 
1.660168908184e+01 1.000000000000e+00 
1.661169062961e+01 1.000000000000e+00 
1.662169217737e+01 1.000000000000e+00 
1.747624025389e+01 1.000000000000e+00 
1.748557503180e+01 1.000000000000e+00 
1.749490980972e+01 1.000000000000e+00 
1.750424458763e+01 1.000000000000e+00 
1.751357936555e+01 1.000000000000e+00 
1.837079452147e+01 1.000000000000e+00 
1.837946252953e+01 1.000000000000e+00 
1.838813053759e+01 1.000000000000e+00 
1.839679854566e+01 1.000000000000e+00 
1.840546655372e+01 1.000000000000e+00 
1.926534878904e+01 1.000000000000e+00 
1.927335002726e+01 1.000000000000e+00 
1.928135126547e+01 1.000000000000e+00 
1.928935250369e+01 1.000000000000e+00 
1.929735374190e+01 1.000000000000e+00 
2.015990305662e+01 1.000000000000e+00 
2.016723752499e+01 1.000000000000e+00 
2.017457199335e+01 1.000000000000e+00 
2.018190646171e+01 1.000000000000e+00 
2.018924093007e+01 1.000000000000e+00 
2.105445732420e+01 1.000000000000e+00 
2.106112502272e+01 1.000000000000e+00 
2.106779272123e+01 1.000000000000e+00 
2.107446041974e+01 1.000000000000e+00 
2.108112811825e+01 1.000000000000e+00 
2.194901159178e+01 1.000000000000e+00 
2.195501252044e+01 1.000000000000e+00 
2.196101344910e+01 1.000000000000e+00 
2.196701437776e+01 1.000000000000e+00 
2.197301530642e+01 1.000000000000e+00 
2.284356585936e+01 1.000000000000e+00 
2.284890001817e+01 1.000000000000e+00 
2.285423417698e+01 1.000000000000e+00 
2.285956833579e+01 1.000000000000e+00 
2.286490249460e+01 1.000000000000e+00 
2.373812012694e+01 1.000000000000e+00 
2.374278751590e+01 1.000000000000e+00 
2.374745490486e+01 1.000000000000e+00 
2.375212229382e+01 1.000000000000e+00 
2.375678968277e+01 1.000000000000e+00 
2.463267439452e+01 1.000000000000e+00 
2.463667501363e+01 1.000000000000e+00 
2.464067563274e+01 1.000000000000e+00 
2.464467625184e+01 1.000000000000e+00 
2.464867687095e+01 1.000000000000e+00 
2.552722866210e+01 1.000000000000e+00 
2.553056251136e+01 1.000000000000e+00 
2.553389636061e+01 1.000000000000e+00 
2.553723020987e+01 1.000000000000e+00 
2.554056405912e+01 1.000000000000e+00 
2.642178292968e+01 1.000000000000e+00 
2.642445000909e+01 1.000000000000e+00 
2.642711708849e+01 1.000000000000e+00 
2.642978416790e+01 1.000000000000e+00 
2.643245124730e+01 1.000000000000e+00 
2.731633719726e+01 1.000000000000e+00 
2.731833750681e+01 1.000000000000e+00 
2.732033781637e+01 1.000000000000e+00 
2.732233812592e+01 1.000000000000e+00 
2.732433843547e+01 1.000000000000e+00 
2.821089146484e+01 1.000000000000e+00 
2.821222500454e+01 1.000000000000e+00 
2.821355854425e+01 1.000000000000e+00 
2.821489208395e+01 1.000000000000e+00 
2.821622562365e+01 1.000000000000e+00 
2.910544573242e+01 1.000000000000e+00 
2.910611250227e+01 1.000000000000e+00 
2.910677927212e+01 1.000000000000e+00 
2.910744604197e+01 1.000000000000e+00 
2.910811281182e+01 1.000000000000e+00 
3.000000000000e+01 1.000000000000e+00 
3.000000000000e+01 1.000000000000e+00 
3.000000000000e+01 1.000000000000e+00 
3.000000000000e+01 1.000000000000e+00 
3.000000000000e+01 1.000000000000e+00 
3.002500000000e+01 1.000000000000e+00 
3.002500000000e+01 1.000000000000e+00 
3.002500000000e+01 1.000000000000e+00 
3.002500000000e+01 1.000000000000e+00 
3.002500000000e+01 1.000000000000e+00 
3.005000000000e+01 1.000000000000e+00 
3.005000000000e+01 1.000000000000e+00 
3.005000000000e+01 1.000000000000e+00 
3.005000000000e+01 1.000000000000e+00 
3.005000000000e+01 1.000000000000e+00 
3.007500000000e+01 1.000000000000e+00 
3.007500000000e+01 1.000000000000e+00 
3.007500000000e+01 1.000000000000e+00 
3.007500000000e+01 1.000000000000e+00 
3.007500000000e+01 1.000000000000e+00 
3.010000000000e+01 1.000000000000e+00 
3.010000000000e+01 1.000000000000e+00 
3.010000000000e+01 1.000000000000e+00 
3.010000000000e+01 1.000000000000e+00 
3.010000000000e+01 1.000000000000e+00 
3.012500000000e+01 1.000000000000e+00 
3.012500000000e+01 1.000000000000e+00 
3.012500000000e+01 1.000000000000e+00 
3.012500000000e+01 1.000000000000e+00 
3.012500000000e+01 1.000000000000e+00 
3.015000000000e+01 1.000000000000e+00 
3.015000000000e+01 1.000000000000e+00 
3.015000000000e+01 1.000000000000e+00 