 TITLE = "Profiles along polylines"
 VARIABLES = "DIST" "SATURATION1" 
 ZONE T="TIME=0.000000000000e+00"
2.781606807838e+00 1.000000000000e+00 
2.791609855574e+00 1.000000000000e+00 
2.801612903311e+00 1.000000000000e+00 
2.811615951048e+00 1.000000000000e+00 
2.821618998785e+00 1.000000000000e+00 
3.688886580909e+00 1.000000000000e+00 
3.698556193722e+00 1.000000000000e+00 
3.708225806534e+00 1.000000000000e+00 
3.717895419346e+00 1.000000000000e+00 
3.727565032159e+00 1.000000000000e+00 
4.596166353981e+00 1.000000000000e+00 
4.605502531869e+00 1.000000000000e+00 
4.614838709756e+00 1.000000000000e+00 
4.624174887644e+00 1.000000000000e+00 
4.633511065532e+00 1.000000000000e+00 
5.503446127053e+00 1.000000000000e+00 
5.512448870017e+00 1.000000000000e+00 
5.521451612980e+00 1.000000000000e+00 
5.530454355943e+00 1.000000000000e+00 
5.539457098906e+00 1.000000000000e+00 
6.410725900126e+00 1.000000000000e+00 
6.419395208164e+00 1.000000000000e+00 
6.428064516203e+00 1.000000000000e+00 
6.436733824241e+00 1.000000000000e+00 
6.445403132280e+00 1.000000000000e+00 
7.318005673197e+00 1.000000000000e+00 
7.326341546311e+00 1.000000000000e+00 
7.334677419425e+00 1.000000000000e+00 
7.343013292539e+00 1.000000000000e+00 
7.351349165653e+00 1.000000000000e+00 
8.225285446269e+00 1.000000000000e+00 
8.233287884458e+00 1.000000000000e+00 
8.241290322647e+00 1.000000000000e+00 
8.249292760837e+00 1.000000000000e+00 
8.257295199026e+00 1.000000000000e+00 
9.132565219340e+00 1.000000000000e+00 
9.140234222605e+00 1.000000000000e+00 
9.147903225870e+00 1.000000000000e+00 
9.155572229135e+00 1.000000000000e+00 
9.163241232400e+00 1.000000000000e+00 
1.003984499241e+01 1.000000000000e+00 
1.004718056075e+01 1.000000000000e+00 
1.005451612909e+01 1.000000000000e+00 
1.006185169743e+01 1.000000000000e+00 
1.006918726577e+01 1.000000000000e+00 
1.094712476548e+01 1.000000000000e+00 
1.095412689890e+01 1.000000000000e+00 
1.096112903231e+01 1.000000000000e+00 
1.096813116573e+01 1.000000000000e+00 
1.097513329914e+01 1.000000000000e+00 
1.185440453855e+01 1.000000000000e+00 
1.186107323704e+01 1.000000000000e+00 
1.186774193553e+01 1.000000000000e+00 
1.187441063402e+01 1.000000000000e+00 
1.188107933251e+01 1.000000000000e+00 
1.276168431162e+01 1.000000000000e+00 
1.276801957519e+01 1.000000000000e+00 
1.277435483875e+01 1.000000000000e+00 
1.278069010232e+01 1.000000000000e+00 
1.278702536589e+01 1.000000000000e+00 
1.366896408469e+01 1.000000000000e+00 
1.367496591333e+01 1.000000000000e+00 
1.368096774197e+01 1.000000000000e+00 
1.368696957061e+01 1.000000000000e+00 
1.369297139926e+01 1.000000000000e+00 
1.457624385776e+01 1.000000000000e+00 
1.458191225148e+01 1.000000000000e+00 
1.458758064519e+01 1.000000000000e+00 
1.459324903891e+01 1.000000000000e+00 
1.459891743263e+01 1.000000000000e+00 
1.548352363083e+01 1.000000000000e+00 
1.548885858962e+01 1.000000000000e+00 
1.549419354841e+01 1.000000000000e+00 
1.549952850721e+01 1.000000000000e+00 
1.550486346600e+01 1.000000000000e+00 
1.639080340390e+01 1.000000000000e+00 
1.639580492776e+01 1.000000000000e+00 
1.640080645163e+01 1.000000000000e+00 
1.640580797550e+01 1.000000000000e+00 
1.641080949937e+01 1.000000000000e+00 
1.729808317697e+01 1.000000000000e+00 
1.730275126591e+01 1.000000000000e+00 
1.730741935486e+01 1.000000000000e+00 
1.731208744380e+01 1.000000000000e+00 
1.731675553274e+01 1.000000000000e+00 
1.820536295004e+01 1.000000000000e+00 
1.820969760406e+01 1.000000000000e+00 
1.821403225808e+01 1.000000000000e+00 
1.821836691210e+01 1.000000000000e+00 
1.822270156612e+01 1.000000000000e+00 
1.911264272312e+01 1.000000000000e+00 
1.911664394221e+01 1.000000000000e+00 
1.912064516131e+01 1.000000000000e+00 
1.912464638040e+01 1.000000000000e+00 
1.912864759950e+01 1.000000000000e+00 
2.001992249619e+01 1.000000000000e+00 
2.002359028036e+01 1.000000000000e+00 
2.002725806453e+01 1.000000000000e+00 
2.003092584870e+01 1.000000000000e+00 
2.003459363287e+01 1.000000000000e+00 
2.092720226926e+01 1.000000000000e+00 
2.093053661851e+01 1.000000000000e+00 
2.093387096776e+01 1.000000000000e+00 
2.093720531700e+01 1.000000000000e+00 
2.094053966625e+01 1.000000000000e+00 
2.183448204234e+01 1.000000000000e+00 
2.183748295666e+01 1.000000000000e+00 
2.184048387098e+01 1.000000000000e+00 
2.184348478530e+01 1.000000000000e+00 
2.184648569962e+01 1.000000000000e+00 
2.274176181541e+01 1.000000000000e+00 
2.274442929481e+01 1.000000000000e+00 
2.274709677420e+01 1.000000000000e+00 
2.274976425360e+01 1.000000000000e+00 
2.275243173300e+01 1.000000000000e+00 
2.364904158848e+01 1.000000000000e+00 
2.365137563296e+01 1.000000000000e+00 
2.365370967743e+01 1.000000000000e+00 
2.365604372190e+01 1.000000000000e+00 
2.365837776637e+01 1.000000000000e+00 
2.455632136156e+01 1.000000000000e+00 
2.455832197111e+01 1.000000000000e+00 
2.456032258065e+01 1.000000000000e+00 
2.456232319020e+01 1.000000000000e+00 
2.456432379975e+01 1.000000000000e+00 
2.546360113463e+01 1.000000000000e+00 
2.546526830925e+01 1.000000000000e+00 
2.546693548388e+01 1.000000000000e+00 
2.546860265850e+01 1.000000000000e+00 
2.547026983312e+01 1.000000000000e+00 
2.637088090771e+01 1.000000000000e+00 
2.637221464740e+01 1.000000000000e+00 
2.637354838710e+01 1.000000000000e+00 
2.637488212680e+01 1.000000000000e+00 
2.637621586650e+01 1.000000000000e+00 
2.727816068078e+01 1.000000000000e+00 
2.727916098555e+01 1.000000000000e+00 
2.728016129033e+01 1.000000000000e+00 
2.728116159510e+01 1.000000000000e+00 
2.728216189987e+01 1.000000000000e+00 
2.818544045385e+01 1.000000000000e+00 
2.818610732370e+01 1.000000000000e+00 
2.818677419355e+01 1.000000000000e+00 
2.818744106340e+01 1.000000000000e+00 
2.818810793325e+01 1.000000000000e+00 
2.909272022693e+01 1.000000000000e+00 
2.909305366185e+01 1.000000000000e+00 
2.909338709678e+01 1.000000000000e+00 
2.909372053170e+01 1.000000000000e+00 
2.909405396662e+01 1.000000000000e+00 
3.000000000000e+01 1.000000000000e+00 
3.000000000000e+01 1.000000000000e+00 
3.000000000000e+01 1.000000000000e+00 
3.000000000000e+01 1.000000000000e+00 
3.000000000000e+01 1.000000000000e+00 
3.002500000000e+01 9.876207709446e-01 
3.002500000000e+01 9.876207709446e-01 
3.002500000000e+01 9.876207709446e-01 
3.002500000000e+01 9.876207709446e-01 
3.002500000000e+01 9.876207709446e-01 
3.005000000000e+01 9.697756439369e-01 
3.005000000000e+01 9.697756439369e-01 
3.005000000000e+01 9.697756439369e-01 
3.005000000000e+01 9.697756439369e-01 
3.005000000000e+01 9.697756439369e-01 
3.007500000000e+01 9.507134089444e-01 
3.007500000000e+01 9.507134089444e-01 
3.007500000000e+01 9.507134089444e-01 
3.007500000000e+01 9.507134089444e-01 
3.007500000000e+01 9.507134089444e-01 
3.010000000000e+01 9.315621650298e-01 
3.010000000000e+01 9.315621650298e-01 
3.010000000000e+01 9.315621650298e-01 
3.010000000000e+01 9.315621650298e-01 
3.010000000000e+01 9.315621650298e-01 
3.012500000000e+01 9.128758324042e-01 
3.012500000000e+01 9.128758324042e-01 
3.012500000000e+01 9.128758324042e-01 
3.012500000000e+01 9.128758324042e-01 
3.012500000000e+01 9.128758324042e-01 
3.015000000000e+01 8.949248043380e-01 
3.015000000000e+01 8.949248043380e-01 
3.015000000000e+01 8.949248043380e-01 
3.015000000000e+01 8.949248043380e-01 
3.015000000000e+01 8.949248043380e-01 
3.017500000000e+01 8.778290027968e-01 
3.017500000000e+01 8.778290027968e-01 
3.017500000000e+01 8.778290027968e-01 
3.017500000000e+01 8.778290027968e-01 
3.017500000000e+01 8.778290027968e-01 
3.020000000000e+01 8.616255702900e-01 
3.020000000000e+01 8.616255702900e-01 
3.020000000000e+01 8.616255702900e-01 
3.020000000000e+01 8.616255702900e-01 
3.020000000000e+01 8.616255702900e-01 
3.022500000000e+01 8.463059583920e-01 
3.022500000000e+01 8.463059583920e-01 
3.022500000000e+01 8.463059583920e-01 
3.022500000000e+01 8.463059583920e-01 
3.022500000000e+01 8.463059583920e-01 
3.025000000000e+01 8.318370344398e-01 
3.025000000000e+01 8.318370344398e-01 
3.025000000000e+01 8.318370344398e-01 
3.025000000000e+01 8.318370344398e-01 
3.025000000000e+01 8.318370344398e-01 
3.027500000000e+01 8.181733156316e-01 
3.027500000000e+01 8.181733156316e-01 
3.027500000000e+01 8.181733156316e-01 
3.027500000000e+01 8.181733156316e-01 
3.027500000000e+01 8.181733156316e-01 
3.030000000000e+01 8.052640970350e-01 
3.030000000000e+01 8.052640970350e-01 
3.030000000000e+01 8.052640970350e-01 
3.030000000000e+01 8.052640970350e-01 
3.030000000000e+01 8.052640970350e-01 
3.032500000000e+01 7.930575753856e-01 
3.032500000000e+01 7.930575753856e-01 
3.032500000000e+01 7.930575753856e-01 
3.032500000000e+01 7.930575753856e-01 
3.032500000000e+01 7.930575753856e-01 
3.035000000000e+01 7.815031815402e-01 
3.035000000000e+01 7.815031815402e-01 
3.035000000000e+01 7.815031815402e-01 
3.035000000000e+01 7.815031815402e-01 
3.035000000000e+01 7.815031815402e-01 
3.037500000000e+01 7.705528376764e-01 
3.037500000000e+01 7.705528376764e-01 
3.037500000000e+01 7.705528376764e-01 
3.037500000000e+01 7.705528376764e-01 
3.037500000000e+01 7.705528376764e-01 
3.040000000000e+01 7.601615689674e-01 
3.040000000000e+01 7.601615689674e-01 
3.040000000000e+01 7.601615689674e-01 
3.040000000000e+01 7.601615689674e-01 
3.040000000000e+01 7.601615689674e-01 
3.042500000000e+01 7.502877306002e-01 
3.042500000000e+01 7.502877306002e-01 
3.042500000000e+01 7.502877306002e-01 
3.042500000000e+01 7.502877306002e-01 
3.042500000000e+01 7.502877306002e-01 
3.045000000000e+01 7.408930096824e-01 
3.045000000000e+01 7.408930096824e-01 
3.045000000000e+01 7.408930096824e-01 
3.045000000000e+01 7.408930096824e-01 
3.045000000000e+01 7.408930096824e-01 
3.047500000000e+01 7.319422999608e-01 
3.047500000000e+01 7.319422999608e-01 
3.047500000000e+01 7.319422999608e-01 
3.047500000000e+01 7.319422999608e-01 
3.047500000000e+01 7.319422999608e-01 
3.050000000000e+01 7.234035093991e-01 
3.050000000000e+01 7.234035093991e-01 
3.050000000000e+01 7.234035093991e-01 
3.050000000000e+01 7.234035093991e-01 
3.050000000000e+01 7.234035093991e-01 
3.052500000000e+01 7.152473371957e-01 
3.052500000000e+01 7.152473371957e-01 
3.052500000000e+01 7.152473371957e-01 
3.052500000000e+01 7.152473371957e-01 
3.052500000000e+01 7.152473371957e-01 
3.055000000000e+01 7.074470422112e-01 
3.055000000000e+01 7.074470422112e-01 
3.055000000000e+01 7.074470422112e-01 
3.055000000000e+01 7.074470422112e-01 
3.055000000000e+01 7.074470422112e-01 
3.057500000000e+01 6.999782156504e-01 
3.057500000000e+01 6.999782156504e-01 
3.057500000000e+01 6.999782156504e-01 
3.057500000000e+01 6.999782156504e-01 
3.057500000000e+01 6.999782156504e-01 
3.060000000000e+01 6.928185651596e-01 
3.060000000000e+01 6.928185651596e-01 
3.060000000000e+01 6.928185651596e-01 
3.060000000000e+01 6.928185651596e-01 
3.060000000000e+01 6.928185651596e-01 
3.062500000000e+01 6.859477139679e-01 
3.062500000000e+01 6.859477139679e-01 
3.062500000000e+01 6.859477139679e-01 
3.062500000000e+01 6.859477139679e-01 
3.062500000000e+01 6.859477139679e-01 
3.065000000000e+01 6.793470165436e-01 
3.065000000000e+01 6.793470165436e-01 
3.065000000000e+01 6.793470165436e-01 
3.065000000000e+01 6.793470165436e-01 
3.065000000000e+01 6.793470165436e-01 
3.067500000000e+01 6.729993909360e-01 
3.067500000000e+01 6.729993909360e-01 
3.067500000000e+01 6.729993909360e-01 
3.067500000000e+01 6.729993909360e-01 
3.067500000000e+01 6.729993909360e-01 
3.070000000000e+01 6.668891672206e-01 
3.070000000000e+01 6.668891672206e-01 
3.070000000000e+01 6.668891672206e-01 
3.070000000000e+01 6.668891672206e-01 
3.070000000000e+01 6.668891672206e-01 
3.072500000000e+01 6.610019510587e-01 
3.072500000000e+01 6.610019510587e-01 
3.072500000000e+01 6.610019510587e-01 
3.072500000000e+01 6.610019510587e-01 
3.072500000000e+01 6.610019510587e-01 
3.075000000000e+01 6.553245011865e-01 
3.075000000000e+01 6.553245011865e-01 
3.075000000000e+01 6.553245011865e-01 
3.075000000000e+01 6.553245011865e-01 
3.075000000000e+01 6.553245011865e-01 
3.077500000000e+01 6.498446195878e-01 
3.077500000000e+01 6.498446195878e-01 
3.077500000000e+01 6.498446195878e-01 
3.077500000000e+01 6.498446195878e-01 
3.077500000000e+01 6.498446195878e-01 
3.080000000000e+01 6.445510531188e-01 
3.080000000000e+01 6.445510531188e-01 
3.080000000000e+01 6.445510531188e-01 
3.080000000000e+01 6.445510531188e-01 
3.080000000000e+01 6.445510531188e-01 
3.082500000000e+01 6.394334054150e-01 
3.082500000000e+01 6.394334054150e-01 
3.082500000000e+01 6.394334054150e-01 
3.082500000000e+01 6.394334054150e-01 
3.082500000000e+01 6.394334054150e-01 
3.085000000000e+01 6.344820579917e-01 
3.085000000000e+01 6.344820579917e-01 
3.085000000000e+01 6.344820579917e-01 
3.085000000000e+01 6.344820579917e-01 
3.085000000000e+01 6.344820579917e-01 
3.087500000000e+01 6.296880995462e-01 
3.087500000000e+01 6.296880995462e-01 
3.087500000000e+01 6.296880995462e-01 
3.087500000000e+01 6.296880995462e-01 
3.087500000000e+01 6.296880995462e-01 
3.090000000000e+01 6.250432625624e-01 
3.090000000000e+01 6.250432625624e-01 
3.090000000000e+01 6.250432625624e-01 
3.090000000000e+01 6.250432625624e-01 
3.090000000000e+01 6.250432625624e-01 
3.092500000000e+01 6.205398664126e-01 
3.092500000000e+01 6.205398664126e-01 
3.092500000000e+01 6.205398664126e-01 
3.092500000000e+01 6.205398664126e-01 
3.092500000000e+01 6.205398664126e-01 
3.095000000000e+01 6.161707662369e-01 
3.095000000000e+01 6.161707662369e-01 
3.095000000000e+01 6.161707662369e-01 
3.095000000000e+01 6.161707662369e-01 
3.095000000000e+01 6.161707662369e-01 
3.097500000000e+01 6.119293069613e-01 
3.097500000000e+01 6.119293069613e-01 
3.097500000000e+01 6.119293069613e-01 
3.097500000000e+01 6.119293069613e-01 
3.097500000000e+01 6.119293069613e-01 
3.100000000000e+01 6.078092818871e-01 
3.100000000000e+01 6.078092818871e-01 
3.100000000000e+01 6.078092818871e-01 
3.100000000000e+01 6.078092818871e-01 
3.100000000000e+01 6.078092818871e-01 
3.102500000000e+01 6.038048953494e-01 
3.102500000000e+01 6.038048953494e-01 
3.102500000000e+01 6.038048953494e-01 
3.102500000000e+01 6.038048953494e-01 
3.102500000000e+01 6.038048953494e-01 
3.105000000000e+01 5.999107290013e-01 
3.105000000000e+01 5.999107290013e-01 
3.105000000000e+01 5.999107290013e-01 
3.105000000000e+01 5.999107290013e-01 
3.105000000000e+01 5.999107290013e-01 
3.107500000000e+01 5.961217113309e-01 
3.107500000000e+01 5.961217113309e-01 
3.107500000000e+01 5.961217113309e-01 
3.107500000000e+01 5.961217113309e-01 
3.107500000000e+01 5.961217113309e-01 
3.110000000000e+01 5.924330900627e-01 
3.110000000000e+01 5.924330900627e-01 
3.110000000000e+01 5.924330900627e-01 
3.110000000000e+01 5.924330900627e-01 
3.110000000000e+01 5.924330900627e-01 
3.112500000000e+01 5.888404071392e-01 
3.112500000000e+01 5.888404071392e-01 
3.112500000000e+01 5.888404071392e-01 
3.112500000000e+01 5.888404071392e-01 
3.112500000000e+01 5.888404071392e-01 
3.115000000000e+01 5.853394760078e-01 
3.115000000000e+01 5.853394760078e-01 
3.115000000000e+01 5.853394760078e-01 
3.115000000000e+01 5.853394760078e-01 
3.115000000000e+01 5.853394760078e-01 
3.117500000000e+01 5.819263609758e-01 
3.117500000000e+01 5.819263609758e-01 
3.117500000000e+01 5.819263609758e-01 
3.117500000000e+01 5.819263609758e-01 
3.117500000000e+01 5.819263609758e-01 
3.120000000000e+01 5.785973584173e-01 
3.120000000000e+01 5.785973584173e-01 
3.120000000000e+01 5.785973584173e-01 
3.120000000000e+01 5.785973584173e-01 
3.120000000000e+01 5.785973584173e-01 
3.122500000000e+01 5.753489796460e-01 
3.122500000000e+01 5.753489796460e-01 
3.122500000000e+01 5.753489796460e-01 
3.122500000000e+01 5.753489796460e-01 
3.122500000000e+01 5.753489796460e-01 
3.125000000000e+01 5.721779352840e-01 
3.125000000000e+01 5.721779352840e-01 
3.125000000000e+01 5.721779352840e-01 
3.125000000000e+01 5.721779352840e-01 
3.125000000000e+01 5.721779352840e-01 
3.127500000000e+01 5.690811209785e-01 
3.127500000000e+01 5.690811209785e-01 
3.127500000000e+01 5.690811209785e-01 
3.127500000000e+01 5.690811209785e-01 
3.127500000000e+01 5.690811209785e-01 
3.130000000000e+01 5.660556043336e-01 
3.130000000000e+01 5.660556043336e-01 
3.130000000000e+01 5.660556043336e-01 
3.130000000000e+01 5.660556043336e-01 
3.130000000000e+01 5.660556043336e-01 
3.132500000000e+01 5.630986129391e-01 
3.132500000000e+01 5.630986129391e-01 
3.132500000000e+01 5.630986129391e-01 
3.132500000000e+01 5.630986129391e-01 
3.132500000000e+01 5.630986129391e-01 
3.135000000000e+01 5.602075233904e-01 
3.135000000000e+01 5.602075233904e-01 
3.135000000000e+01 5.602075233904e-01 
3.135000000000e+01 5.602075233904e-01 
3.135000000000e+01 5.602075233904e-01 
3.137500000000e+01 5.573798512060e-01 
3.137500000000e+01 5.573798512060e-01 
3.137500000000e+01 5.573798512060e-01 
3.137500000000e+01 5.573798512060e-01 
3.137500000000e+01 5.573798512060e-01 
3.140000000000e+01 5.546132415581e-01 
3.140000000000e+01 5.546132415581e-01 
3.140000000000e+01 5.546132415581e-01 
3.140000000000e+01 5.546132415581e-01 
3.140000000000e+01 5.546132415581e-01 
3.142500000000e+01 5.519054607414e-01 
3.142500000000e+01 5.519054607414e-01 
3.142500000000e+01 5.519054607414e-01 
3.142500000000e+01 5.519054607414e-01 
3.142500000000e+01 5.519054607414e-01 
3.145000000000e+01 5.492543883110e-01 
3.145000000000e+01 5.492543883110e-01 
3.145000000000e+01 5.492543883110e-01 
3.145000000000e+01 5.492543883110e-01 
3.145000000000e+01 5.492543883110e-01 
3.147500000000e+01 5.466580098318e-01 
3.147500000000e+01 5.466580098318e-01 
3.147500000000e+01 5.466580098318e-01 
3.147500000000e+01 5.466580098318e-01 
3.147500000000e+01 5.466580098318e-01 
3.150000000000e+01 5.441144101810e-01 
3.150000000000e+01 5.441144101810e-01 
3.150000000000e+01 5.441144101810e-01 
3.150000000000e+01 5.441144101810e-01 
3.150000000000e+01 5.441144101810e-01 
3.152500000000e+01 5.416217673588e-01 
3.152500000000e+01 5.416217673588e-01 
3.152500000000e+01 5.416217673588e-01 
3.152500000000e+01 5.416217673588e-01 
3.152500000000e+01 5.416217673588e-01 
3.155000000000e+01 5.391783467591e-01 
3.155000000000e+01 5.391783467591e-01 
3.155000000000e+01 5.391783467591e-01 
3.155000000000e+01 5.391783467591e-01 
3.155000000000e+01 5.391783467591e-01 
3.157500000000e+01 5.367824958643e-01 
3.157500000000e+01 5.367824958643e-01 
3.157500000000e+01 5.367824958643e-01 
3.157500000000e+01 5.367824958643e-01 
3.157500000000e+01 5.367824958643e-01 
3.160000000000e+01 5.344326393247e-01 
3.160000000000e+01 5.344326393247e-01 
3.160000000000e+01 5.344326393247e-01 
3.160000000000e+01 5.344326393247e-01 
3.160000000000e+01 5.344326393247e-01 
3.162500000000e+01 5.321272743928e-01 
3.162500000000e+01 5.321272743928e-01 
3.162500000000e+01 5.321272743928e-01 
3.162500000000e+01 5.321272743928e-01 
3.162500000000e+01 5.321272743928e-01 
3.165000000000e+01 5.298649666811e-01 
3.165000000000e+01 5.298649666811e-01 
3.165000000000e+01 5.298649666811e-01 
3.165000000000e+01 5.298649666811e-01 
3.165000000000e+01 5.298649666811e-01 
3.167500000000e+01 5.276443462180e-01 
3.167500000000e+01 5.276443462180e-01 
3.167500000000e+01 5.276443462180e-01 
3.167500000000e+01 5.276443462180e-01 
3.167500000000e+01 5.276443462180e-01 
3.170000000000e+01 5.254641037767e-01 
3.170000000000e+01 5.254641037767e-01 
3.170000000000e+01 5.254641037767e-01 
3.170000000000e+01 5.254641037767e-01 
3.170000000000e+01 5.254641037767e-01 
3.172500000000e+01 5.233229874560e-01 
3.172500000000e+01 5.233229874560e-01 
3.172500000000e+01 5.233229874560e-01 
3.172500000000e+01 5.233229874560e-01 
3.172500000000e+01 5.233229874560e-01 
3.175000000000e+01 5.212197994921e-01 
3.175000000000e+01 5.212197994921e-01 
3.175000000000e+01 5.212197994921e-01 
3.175000000000e+01 5.212197994921e-01 
3.175000000000e+01 5.212197994921e-01 
3.177500000000e+01 5.191533932842e-01 
3.177500000000e+01 5.191533932842e-01 
3.177500000000e+01 5.191533932842e-01 
3.177500000000e+01 5.191533932842e-01 
3.177500000000e+01 5.191533932842e-01 
3.180000000000e+01 5.171226706164e-01 
3.180000000000e+01 5.171226706164e-01 
3.180000000000e+01 5.171226706164e-01 
3.180000000000e+01 5.171226706164e-01 
3.180000000000e+01 5.171226706164e-01 
3.182500000000e+01 5.151265790614e-01 
3.182500000000e+01 5.151265790614e-01 
3.182500000000e+01 5.151265790614e-01 
3.182500000000e+01 5.151265790614e-01 
3.182500000000e+01 5.151265790614e-01 
3.185000000000e+01 5.131641095520e-01 
3.185000000000e+01 5.131641095520e-01 
3.185000000000e+01 5.131641095520e-01 
3.185000000000e+01 5.131641095520e-01 
3.185000000000e+01 5.131641095520e-01 
3.187500000000e+01 5.112342941078e-01 
3.187500000000e+01 5.112342941078e-01 
3.187500000000e+01 5.112342941078e-01 
3.187500000000e+01 5.112342941078e-01 
3.187500000000e+01 5.112342941078e-01 
3.190000000000e+01 5.093362037054e-01 
3.190000000000e+01 5.093362037054e-01 
3.190000000000e+01 5.093362037054e-01 
3.190000000000e+01 5.093362037054e-01 
3.190000000000e+01 5.093362037054e-01 
3.192500000000e+01 5.074689462822e-01 
3.192500000000e+01 5.074689462822e-01 
3.192500000000e+01 5.074689462822e-01 
3.192500000000e+01 5.074689462822e-01 
3.192500000000e+01 5.074689462822e-01 
3.195000000000e+01 5.056316648631e-01 
3.195000000000e+01 5.056316648631e-01 
3.195000000000e+01 5.056316648631e-01 
3.195000000000e+01 5.056316648631e-01 
3.195000000000e+01 5.056316648631e-01 
3.197500000000e+01 5.038235358020e-01 
3.197500000000e+01 5.038235358020e-01 
3.197500000000e+01 5.038235358020e-01 
3.197500000000e+01 5.038235358020e-01 
3.197500000000e+01 5.038235358020e-01 
3.200000000000e+01 5.009973760297e-01 
3.200000000000e+01 5.010034615957e-01 
3.200000000000e+01 5.010064999814e-01 
3.200000000000e+01 5.010004202768e-01 
3.200000000000e+01 5.010095354288e-01 
3.315632136157e+01 4.401593262331e-01 
3.315832197111e+01 4.400776313221e-01 
3.316032258066e+01 4.399960011283e-01 
3.316232319021e+01 4.399144355646e-01 
3.316432379976e+01 4.398329345441e-01 
3.431264272313e+01 4.035150080609e-01 
3.431664394223e+01 4.034086273918e-01 
3.432064516132e+01 4.033023753225e-01 
3.432464638042e+01 4.031962515838e-01 
3.432864759951e+01 4.030902559071e-01 
3.546896408470e+01 3.776595489200e-01 
3.547496591334e+01 3.775431308734e-01 
3.548096774199e+01 3.774268803019e-01 
3.548696957063e+01 3.773107967862e-01 
3.549297139927e+01 3.771948799083e-01 
3.662528544627e+01 3.580641521085e-01 
3.663328788446e+01 3.579436849709e-01 
3.664129032265e+01 3.578234091435e-01 
3.664929276084e+01 3.577033240965e-01 
3.665729519903e+01 3.575834293024e-01 
3.778160680784e+01 3.424756865734e-01 
3.779160985557e+01 3.423539281601e-01 
3.780161290331e+01 3.422323759592e-01 
3.781161595105e+01 3.421110293614e-01 
3.782161899878e+01 3.419898877601e-01 
 TITLE = "Profiles along polylines"
 VARIABLES = "DIST" "SATURATION1" 
 ZONE T="TIME=1.797693134862e+308"
2.781606807838e+00 1.000000000000e+00 
2.791609855574e+00 1.000000000000e+00 
2.801612903311e+00 1.000000000000e+00 
2.811615951048e+00 1.000000000000e+00 
2.821618998785e+00 1.000000000000e+00 
3.688886580909e+00 1.000000000000e+00 
3.698556193722e+00 1.000000000000e+00 
3.708225806534e+00 1.000000000000e+00 
3.717895419346e+00 1.000000000000e+00 
3.727565032159e+00 1.000000000000e+00 
4.596166353981e+00 1.000000000000e+00 
4.605502531869e+00 1.000000000000e+00 
4.614838709756e+00 1.000000000000e+00 
4.624174887644e+00 1.000000000000e+00 
4.633511065532e+00 1.000000000000e+00 
5.503446127053e+00 1.000000000000e+00 
5.512448870017e+00 1.000000000000e+00 
5.521451612980e+00 1.000000000000e+00 
5.530454355943e+00 1.000000000000e+00 
5.539457098906e+00 1.000000000000e+00 
6.410725900126e+00 1.000000000000e+00 
6.419395208164e+00 1.000000000000e+00 
6.428064516203e+00 1.000000000000e+00 
6.436733824241e+00 1.000000000000e+00 
6.445403132280e+00 1.000000000000e+00 
7.318005673197e+00 1.000000000000e+00 
7.326341546311e+00 1.000000000000e+00 
7.334677419425e+00 1.000000000000e+00 
7.343013292539e+00 1.000000000000e+00 
7.351349165653e+00 1.000000000000e+00 
8.225285446269e+00 1.000000000000e+00 
8.233287884458e+00 1.000000000000e+00 
8.241290322647e+00 1.000000000000e+00 
8.249292760837e+00 1.000000000000e+00 
8.257295199026e+00 1.000000000000e+00 
9.132565219340e+00 1.000000000000e+00 
9.140234222605e+00 1.000000000000e+00 
9.147903225870e+00 1.000000000000e+00 
9.155572229135e+00 1.000000000000e+00 
9.163241232400e+00 1.000000000000e+00 
1.003984499241e+01 1.000000000000e+00 
1.004718056075e+01 1.000000000000e+00 
1.005451612909e+01 1.000000000000e+00 
1.006185169743e+01 1.000000000000e+00 
1.006918726577e+01 1.000000000000e+00 
1.094712476548e+01 1.000000000000e+00 
1.095412689890e+01 1.000000000000e+00 
1.096112903231e+01 1.000000000000e+00 
1.096813116573e+01 1.000000000000e+00 
1.097513329914e+01 1.000000000000e+00 
1.185440453855e+01 1.000000000000e+00 
1.186107323704e+01 1.000000000000e+00 
1.186774193553e+01 1.000000000000e+00 
1.187441063402e+01 1.000000000000e+00 
1.188107933251e+01 1.000000000000e+00 
1.276168431162e+01 1.000000000000e+00 
1.276801957519e+01 1.000000000000e+00 
1.277435483875e+01 1.000000000000e+00 
1.278069010232e+01 1.000000000000e+00 
1.278702536589e+01 1.000000000000e+00 
1.366896408469e+01 1.000000000000e+00 
1.367496591333e+01 1.000000000000e+00 
1.368096774197e+01 1.000000000000e+00 
1.368696957061e+01 1.000000000000e+00 
1.369297139926e+01 1.000000000000e+00 
1.457624385776e+01 1.000000000000e+00 
1.458191225148e+01 1.000000000000e+00 
1.458758064519e+01 1.000000000000e+00 
1.459324903891e+01 1.000000000000e+00 
1.459891743263e+01 1.000000000000e+00 
1.548352363083e+01 1.000000000000e+00 
1.548885858962e+01 1.000000000000e+00 
1.549419354841e+01 1.000000000000e+00 
1.549952850721e+01 1.000000000000e+00 
1.550486346600e+01 1.000000000000e+00 
1.639080340390e+01 1.000000000000e+00 
1.639580492776e+01 1.000000000000e+00 
1.640080645163e+01 1.000000000000e+00 
1.640580797550e+01 1.000000000000e+00 
1.641080949937e+01 1.000000000000e+00 
1.729808317697e+01 1.000000000000e+00 
1.730275126591e+01 1.000000000000e+00 
1.730741935486e+01 1.000000000000e+00 
1.731208744380e+01 1.000000000000e+00 
1.731675553274e+01 1.000000000000e+00 
1.820536295004e+01 1.000000000000e+00 
1.820969760406e+01 1.000000000000e+00 
1.821403225808e+01 1.000000000000e+00 
1.821836691210e+01 1.000000000000e+00 
1.822270156612e+01 1.000000000000e+00 
1.911264272312e+01 1.000000000000e+00 
1.911664394221e+01 1.000000000000e+00 
1.912064516131e+01 1.000000000000e+00 
1.912464638040e+01 1.000000000000e+00 
1.912864759950e+01 1.000000000000e+00 
2.001992249619e+01 1.000000000000e+00 
2.002359028036e+01 1.000000000000e+00 
2.002725806453e+01 1.000000000000e+00 
2.003092584870e+01 1.000000000000e+00 
2.003459363287e+01 1.000000000000e+00 
2.092720226926e+01 1.000000000000e+00 
2.093053661851e+01 1.000000000000e+00 
2.093387096776e+01 1.000000000000e+00 
2.093720531700e+01 1.000000000000e+00 
2.094053966625e+01 1.000000000000e+00 
2.183448204234e+01 1.000000000000e+00 
2.183748295666e+01 1.000000000000e+00 
2.184048387098e+01 1.000000000000e+00 
2.184348478530e+01 1.000000000000e+00 
2.184648569962e+01 1.000000000000e+00 
2.274176181541e+01 1.000000000000e+00 
2.274442929481e+01 1.000000000000e+00 
2.274709677420e+01 1.000000000000e+00 
2.274976425360e+01 1.000000000000e+00 
2.275243173300e+01 1.000000000000e+00 
2.364904158848e+01 1.000000000000e+00 
2.365137563296e+01 1.000000000000e+00 
2.365370967743e+01 1.000000000000e+00 
2.365604372190e+01 1.000000000000e+00 
2.365837776637e+01 1.000000000000e+00 
2.455632136156e+01 1.000000000000e+00 
2.455832197111e+01 1.000000000000e+00 
2.456032258065e+01 1.000000000000e+00 
2.456232319020e+01 1.000000000000e+00 
2.456432379975e+01 1.000000000000e+00 
2.546360113463e+01 1.000000000000e+00 
2.546526830925e+01 1.000000000000e+00 
2.546693548388e+01 1.000000000000e+00 
2.546860265850e+01 1.000000000000e+00 
2.547026983312e+01 1.000000000000e+00 
2.637088090771e+01 1.000000000000e+00 
2.637221464740e+01 1.000000000000e+00 
2.637354838710e+01 1.000000000000e+00 
2.637488212680e+01 1.000000000000e+00 
2.637621586650e+01 1.000000000000e+00 
2.727816068078e+01 1.000000000000e+00 
2.727916098555e+01 1.000000000000e+00 
2.728016129033e+01 1.000000000000e+00 
2.728116159510e+01 1.000000000000e+00 
2.728216189987e+01 1.000000000000e+00 
2.818544045385e+01 1.000000000000e+00 
2.818610732370e+01 1.000000000000e+00 
2.818677419355e+01 1.000000000000e+00 
2.818744106340e+01 1.000000000000e+00 
2.818810793325e+01 1.000000000000e+00 
2.909272022693e+01 1.000000000000e+00 
2.909305366185e+01 1.000000000000e+00 
2.909338709678e+01 1.000000000000e+00 
2.909372053170e+01 1.000000000000e+00 
2.909405396662e+01 1.000000000000e+00 
3.000000000000e+01 1.000000000000e+00 
3.000000000000e+01 1.000000000000e+00 
3.000000000000e+01 1.000000000000e+00 
3.000000000000e+01 1.000000000000e+00 
3.000000000000e+01 1.000000000000e+00 
3.002500000000e+01 1.000000000000e+00 
3.002500000000e+01 1.000000000000e+00 
3.002500000000e+01 1.000000000000e+00 
3.002500000000e+01 1.000000000000e+00 
3.002500000000e+01 1.000000000000e+00 
3.005000000000e+01 1.000000000000e+00 
3.005000000000e+01 1.000000000000e+00 
3.005000000000e+01 1.000000000000e+00 
3.005000000000e+01 1.000000000000e+00 
3.005000000000e+01 1.000000000000e+00 
3.007500000000e+01 1.000000000000e+00 
3.007500000000e+01 1.000000000000e+00 
3.007500000000e+01 1.000000000000e+00 
3.007500000000e+01 1.000000000000e+00 
3.007500000000e+01 1.000000000000e+00 
3.010000000000e+01 1.000000000000e+00 
3.010000000000e+01 1.000000000000e+00 
3.010000000000e+01 1.000000000000e+00 
3.010000000000e+01 1.000000000000e+00 
3.010000000000e+01 1.000000000000e+00 
3.012500000000e+01 1.000000000000e+00 
3.012500000000e+01 1.000000000000e+00 
3.012500000000e+01 1.000000000000e+00 
3.012500000000e+01 1.000000000000e+00 
3.012500000000e+01 1.000000000000e+00 
3.015000000000e+01 1.000000000000e+00 
3.015000000000e+01 1.000000000000e+00 
3.015000000000e+01 1.000000000000e+00 