 TITLE = "Profiles along polylines"
 VARIABLES = "DIST" "SATURATION1" 
 ZONE T="TIME=0.000000000000e+00"
2.881637285206e+00 1.000000000000e+00 
2.891640332943e+00 1.000000000000e+00 
2.901643380680e+00 1.000000000000e+00 
2.911646428417e+00 1.000000000000e+00 
2.921649476154e+00 1.000000000000e+00 
3.785582709032e+00 1.000000000000e+00 
3.795252321845e+00 1.000000000000e+00 
3.804921934657e+00 1.000000000000e+00 
3.814591547469e+00 1.000000000000e+00 
3.824261160282e+00 1.000000000000e+00 
4.689528132858e+00 1.000000000000e+00 
4.698864310746e+00 1.000000000000e+00 
4.708200488634e+00 1.000000000000e+00 
4.717536666522e+00 1.000000000000e+00 
4.726872844409e+00 1.000000000000e+00 
5.593473556685e+00 1.000000000000e+00 
5.602476299648e+00 1.000000000000e+00 
5.611479042612e+00 1.000000000000e+00 
5.620481785575e+00 1.000000000000e+00 
5.629484528538e+00 1.000000000000e+00 
6.497418980512e+00 1.000000000000e+00 
6.506088288550e+00 1.000000000000e+00 
6.514757596589e+00 1.000000000000e+00 
6.523426904628e+00 1.000000000000e+00 
6.532096212666e+00 1.000000000000e+00 
7.401364404338e+00 1.000000000000e+00 
7.409700277452e+00 1.000000000000e+00 
7.418036150566e+00 1.000000000000e+00 
7.426372023680e+00 1.000000000000e+00 
7.434707896794e+00 1.000000000000e+00 
8.305309828163e+00 1.000000000000e+00 
8.313312266353e+00 1.000000000000e+00 
8.321314704542e+00 1.000000000000e+00 
8.329317142732e+00 1.000000000000e+00 
8.337319580921e+00 1.000000000000e+00 
9.209255251989e+00 1.000000000000e+00 
9.216924255254e+00 1.000000000000e+00 
9.224593258519e+00 1.000000000000e+00 
9.232262261784e+00 1.000000000000e+00 
9.239931265049e+00 1.000000000000e+00 
1.011320067581e+01 1.000000000000e+00 
1.012053624416e+01 1.000000000000e+00 
1.012787181250e+01 1.000000000000e+00 
1.013520738084e+01 1.000000000000e+00 
1.014254294918e+01 1.000000000000e+00 
1.101714609964e+01 1.000000000000e+00 
1.102414823305e+01 1.000000000000e+00 
1.103115036647e+01 1.000000000000e+00 
1.103815249989e+01 1.000000000000e+00 
1.104515463330e+01 1.000000000000e+00 
1.192109152346e+01 1.000000000000e+00 
1.192776022195e+01 1.000000000000e+00 
1.193442892044e+01 1.000000000000e+00 
1.194109761894e+01 1.000000000000e+00 
1.194776631743e+01 1.000000000000e+00 
1.282503694729e+01 1.000000000000e+00 
1.283137221085e+01 1.000000000000e+00 
1.283770747442e+01 1.000000000000e+00 
1.284404273799e+01 1.000000000000e+00 
1.285037800155e+01 1.000000000000e+00 
1.372898237111e+01 1.000000000000e+00 
1.373498419975e+01 1.000000000000e+00 
1.374098602839e+01 1.000000000000e+00 
1.374698785704e+01 1.000000000000e+00 
1.375298968568e+01 1.000000000000e+00 
1.463292779493e+01 1.000000000000e+00 
1.463859618865e+01 1.000000000000e+00 
1.464426458237e+01 1.000000000000e+00 
1.464993297609e+01 1.000000000000e+00 
1.465560136980e+01 1.000000000000e+00 
1.553687321876e+01 1.000000000000e+00 
1.554220817755e+01 1.000000000000e+00 
1.554754313634e+01 1.000000000000e+00 
1.555287809514e+01 1.000000000000e+00 
1.555821305393e+01 1.000000000000e+00 
1.644081864258e+01 1.000000000000e+00 
1.644582016645e+01 1.000000000000e+00 
1.645082169032e+01 1.000000000000e+00 
1.645582321419e+01 1.000000000000e+00 
1.646082473805e+01 1.000000000000e+00 
1.734476406641e+01 1.000000000000e+00 
1.734943215535e+01 1.000000000000e+00 
1.735410024430e+01 1.000000000000e+00 
1.735876833324e+01 1.000000000000e+00 
1.736343642218e+01 1.000000000000e+00 
1.824870949024e+01 1.000000000000e+00 
1.825304414426e+01 1.000000000000e+00 
1.825737879827e+01 1.000000000000e+00 
1.826171345229e+01 1.000000000000e+00 
1.826604810631e+01 1.000000000000e+00 
1.915265491406e+01 1.000000000000e+00 
1.915665613316e+01 1.000000000000e+00 
1.916065735225e+01 1.000000000000e+00 
1.916465857135e+01 1.000000000000e+00 
1.916865979044e+01 1.000000000000e+00 
2.005660033789e+01 1.000000000000e+00 
2.006026812206e+01 1.000000000000e+00 
2.006393590623e+01 1.000000000000e+00 
2.006760369040e+01 1.000000000000e+00 
2.007127147457e+01 1.000000000000e+00 
2.096054576172e+01 1.000000000000e+00 
2.096388011097e+01 1.000000000000e+00 
2.096721446021e+01 1.000000000000e+00 
2.097054880946e+01 1.000000000000e+00 
2.097388315870e+01 1.000000000000e+00 
2.186449118555e+01 1.000000000000e+00 
2.186749209987e+01 1.000000000000e+00 
2.187049301419e+01 1.000000000000e+00 
2.187349392851e+01 1.000000000000e+00 
2.187649484283e+01 1.000000000000e+00 
2.276843660938e+01 1.000000000000e+00 
2.277110408877e+01 1.000000000000e+00 
2.277377156817e+01 1.000000000000e+00 
2.277643904757e+01 1.000000000000e+00 
2.277910652696e+01 1.000000000000e+00 
2.367238203320e+01 1.000000000000e+00 
2.367471607768e+01 1.000000000000e+00 
2.367705012215e+01 1.000000000000e+00 
2.367938416662e+01 1.000000000000e+00 
2.368171821109e+01 1.000000000000e+00 
2.457632745703e+01 1.000000000000e+00 
2.457832806658e+01 1.000000000000e+00 
2.458032867613e+01 1.000000000000e+00 
2.458232928567e+01 1.000000000000e+00 
2.458432989522e+01 1.000000000000e+00 
2.548027288086e+01 1.000000000000e+00 
2.548194005548e+01 1.000000000000e+00 
2.548360723011e+01 1.000000000000e+00 
2.548527440473e+01 1.000000000000e+00 
2.548694157935e+01 1.000000000000e+00 
2.638421830469e+01 1.000000000000e+00 
2.638555204439e+01 1.000000000000e+00 
2.638688578408e+01 1.000000000000e+00 
2.638821952378e+01 1.000000000000e+00 
2.638955326348e+01 1.000000000000e+00 
2.728816372852e+01 1.000000000000e+00 
2.728916403329e+01 1.000000000000e+00 
2.729016433806e+01 1.000000000000e+00 
2.729116464284e+01 1.000000000000e+00 
2.729216494761e+01 1.000000000000e+00 
2.819210915234e+01 1.000000000000e+00 
2.819277602219e+01 1.000000000000e+00 
2.819344289204e+01 1.000000000000e+00 
2.819410976189e+01 1.000000000000e+00 
2.819477663174e+01 1.000000000000e+00 
2.909605457617e+01 1.000000000000e+00 
2.909638801110e+01 1.000000000000e+00 
2.909672144602e+01 1.000000000000e+00 
2.909705488095e+01 1.000000000000e+00 
2.909738831587e+01 1.000000000000e+00 
3.000000000000e+01 1.000000000000e+00 
3.000000000000e+01 1.000000000000e+00 
3.000000000000e+01 1.000000000000e+00 
3.000000000000e+01 1.000000000000e+00 
3.000000000000e+01 1.000000000000e+00 
3.002500000000e+01 9.876207709446e-01 
3.002500000000e+01 9.876207709446e-01 
3.002500000000e+01 9.876207709446e-01 
3.002500000000e+01 9.876207709446e-01 
3.002500000000e+01 9.876207709446e-01 
3.005000000000e+01 9.697756439369e-01 
3.005000000000e+01 9.697756439369e-01 
3.005000000000e+01 9.697756439369e-01 
3.005000000000e+01 9.697756439369e-01 
3.005000000000e+01 9.697756439369e-01 
3.007500000000e+01 9.507134089444e-01 
3.007500000000e+01 9.507134089444e-01 
3.007500000000e+01 9.507134089444e-01 
3.007500000000e+01 9.507134089444e-01 
3.007500000000e+01 9.507134089444e-01 
3.010000000000e+01 9.315621650298e-01 
3.010000000000e+01 9.315621650298e-01 
3.010000000000e+01 9.315621650298e-01 
3.010000000000e+01 9.315621650298e-01 
3.010000000000e+01 9.315621650298e-01 
3.012500000000e+01 9.128758324042e-01 
3.012500000000e+01 9.128758324042e-01 
3.012500000000e+01 9.128758324042e-01 
3.012500000000e+01 9.128758324042e-01 
3.012500000000e+01 9.128758324042e-01 
3.015000000000e+01 8.949248043380e-01 
3.015000000000e+01 8.949248043380e-01 
3.015000000000e+01 8.949248043380e-01 
3.015000000000e+01 8.949248043380e-01 
3.015000000000e+01 8.949248043380e-01 
3.017500000000e+01 8.778290027968e-01 
3.017500000000e+01 8.778290027968e-01 
3.017500000000e+01 8.778290027968e-01 
3.017500000000e+01 8.778290027968e-01 
3.017500000000e+01 8.778290027968e-01 
3.020000000000e+01 8.616255702900e-01 
3.020000000000e+01 8.616255702900e-01 
3.020000000000e+01 8.616255702900e-01 
3.020000000000e+01 8.616255702900e-01 
3.020000000000e+01 8.616255702900e-01 
3.022500000000e+01 8.463059583920e-01 
3.022500000000e+01 8.463059583920e-01 
3.022500000000e+01 8.463059583920e-01 
3.022500000000e+01 8.463059583920e-01 
3.022500000000e+01 8.463059583920e-01 
3.025000000000e+01 8.318370344398e-01 
3.025000000000e+01 8.318370344398e-01 
3.025000000000e+01 8.318370344398e-01 
3.025000000000e+01 8.318370344398e-01 
3.025000000000e+01 8.318370344398e-01 
3.027500000000e+01 8.181733156316e-01 
3.027500000000e+01 8.181733156316e-01 
3.027500000000e+01 8.181733156316e-01 
3.027500000000e+01 8.181733156316e-01 
3.027500000000e+01 8.181733156316e-01 
3.030000000000e+01 8.052640970350e-01 
3.030000000000e+01 8.052640970350e-01 
3.030000000000e+01 8.052640970350e-01 
3.030000000000e+01 8.052640970350e-01 
3.030000000000e+01 8.052640970350e-01 
3.032500000000e+01 7.930575753856e-01 
3.032500000000e+01 7.930575753856e-01 
3.032500000000e+01 7.930575753856e-01 
3.032500000000e+01 7.930575753856e-01 
3.032500000000e+01 7.930575753856e-01 
3.035000000000e+01 7.815031815402e-01 
3.035000000000e+01 7.815031815402e-01 
3.035000000000e+01 7.815031815402e-01 
3.035000000000e+01 7.815031815402e-01 
3.035000000000e+01 7.815031815402e-01 
3.037500000000e+01 7.705528376764e-01 
3.037500000000e+01 7.705528376764e-01 
3.037500000000e+01 7.705528376764e-01 
3.037500000000e+01 7.705528376764e-01 
3.037500000000e+01 7.705528376764e-01 
3.040000000000e+01 7.601615689674e-01 
3.040000000000e+01 7.601615689674e-01 
3.040000000000e+01 7.601615689674e-01 
3.040000000000e+01 7.601615689674e-01 
3.040000000000e+01 7.601615689674e-01 
3.042500000000e+01 7.502877306002e-01 
3.042500000000e+01 7.502877306002e-01 
3.042500000000e+01 7.502877306002e-01 
3.042500000000e+01 7.502877306002e-01 
3.042500000000e+01 7.502877306002e-01 
3.045000000000e+01 7.408930096824e-01 
3.045000000000e+01 7.408930096824e-01 
3.045000000000e+01 7.408930096824e-01 
3.045000000000e+01 7.408930096824e-01 
3.045000000000e+01 7.408930096824e-01 
3.047500000000e+01 7.319422999608e-01 
3.047500000000e+01 7.319422999608e-01 
3.047500000000e+01 7.319422999608e-01 
3.047500000000e+01 7.319422999608e-01 
3.047500000000e+01 7.319422999608e-01 
3.050000000000e+01 7.234035093991e-01 
3.050000000000e+01 7.234035093991e-01 
3.050000000000e+01 7.234035093991e-01 
3.050000000000e+01 7.234035093991e-01 
3.050000000000e+01 7.234035093991e-01 
3.052500000000e+01 7.152473371957e-01 
3.052500000000e+01 7.152473371957e-01 
3.052500000000e+01 7.152473371957e-01 
3.052500000000e+01 7.152473371957e-01 
3.052500000000e+01 7.152473371957e-01 
3.055000000000e+01 7.074470422112e-01 
3.055000000000e+01 7.074470422112e-01 
3.055000000000e+01 7.074470422112e-01 
3.055000000000e+01 7.074470422112e-01 
3.055000000000e+01 7.074470422112e-01 
3.057500000000e+01 6.999782156504e-01 
3.057500000000e+01 6.999782156504e-01 
3.057500000000e+01 6.999782156504e-01 
3.057500000000e+01 6.999782156504e-01 
3.057500000000e+01 6.999782156504e-01 
3.060000000000e+01 6.928185651596e-01 
3.060000000000e+01 6.928185651596e-01 
3.060000000000e+01 6.928185651596e-01 
3.060000000000e+01 6.928185651596e-01 
3.060000000000e+01 6.928185651596e-01 
3.062500000000e+01 6.859477139679e-01 
3.062500000000e+01 6.859477139679e-01 
3.062500000000e+01 6.859477139679e-01 
3.062500000000e+01 6.859477139679e-01 
3.062500000000e+01 6.859477139679e-01 
3.065000000000e+01 6.793470165436e-01 
3.065000000000e+01 6.793470165436e-01 
3.065000000000e+01 6.793470165436e-01 
3.065000000000e+01 6.793470165436e-01 
3.065000000000e+01 6.793470165436e-01 
3.067500000000e+01 6.729993909360e-01 
3.067500000000e+01 6.729993909360e-01 
3.067500000000e+01 6.729993909360e-01 
3.067500000000e+01 6.729993909360e-01 
3.067500000000e+01 6.729993909360e-01 
3.070000000000e+01 6.668891672206e-01 
3.070000000000e+01 6.668891672206e-01 
3.070000000000e+01 6.668891672206e-01 
3.070000000000e+01 6.668891672206e-01 
3.070000000000e+01 6.668891672206e-01 
3.072500000000e+01 6.610019510587e-01 
3.072500000000e+01 6.610019510587e-01 
3.072500000000e+01 6.610019510587e-01 
3.072500000000e+01 6.610019510587e-01 
3.072500000000e+01 6.610019510587e-01 
3.075000000000e+01 6.553245011865e-01 
3.075000000000e+01 6.553245011865e-01 
3.075000000000e+01 6.553245011865e-01 
3.075000000000e+01 6.553245011865e-01 
3.075000000000e+01 6.553245011865e-01 
3.077500000000e+01 6.498446195878e-01 
3.077500000000e+01 6.498446195878e-01 
3.077500000000e+01 6.498446195878e-01 
3.077500000000e+01 6.498446195878e-01 
3.077500000000e+01 6.498446195878e-01 
3.080000000000e+01 6.445510531188e-01 
3.080000000000e+01 6.445510531188e-01 
3.080000000000e+01 6.445510531188e-01 
3.080000000000e+01 6.445510531188e-01 
3.080000000000e+01 6.445510531188e-01 
3.082500000000e+01 6.394334054150e-01 
3.082500000000e+01 6.394334054150e-01 
3.082500000000e+01 6.394334054150e-01 
3.082500000000e+01 6.394334054150e-01 
3.082500000000e+01 6.394334054150e-01 
3.085000000000e+01 6.344820579917e-01 
3.085000000000e+01 6.344820579917e-01 
3.085000000000e+01 6.344820579917e-01 
3.085000000000e+01 6.344820579917e-01 
3.085000000000e+01 6.344820579917e-01 
3.087500000000e+01 6.296880995462e-01 
3.087500000000e+01 6.296880995462e-01 
3.087500000000e+01 6.296880995462e-01 
3.087500000000e+01 6.296880995462e-01 
3.087500000000e+01 6.296880995462e-01 
3.090000000000e+01 6.250432625624e-01 
3.090000000000e+01 6.250432625624e-01 
3.090000000000e+01 6.250432625624e-01 
3.090000000000e+01 6.250432625624e-01 
3.090000000000e+01 6.250432625624e-01 
3.092500000000e+01 6.205398664126e-01 
3.092500000000e+01 6.205398664126e-01 
3.092500000000e+01 6.205398664126e-01 
3.092500000000e+01 6.205398664126e-01 
3.092500000000e+01 6.205398664126e-01 
3.095000000000e+01 6.161707662369e-01 
3.095000000000e+01 6.161707662369e-01 
3.095000000000e+01 6.161707662369e-01 
3.095000000000e+01 6.161707662369e-01 
3.095000000000e+01 6.161707662369e-01 
3.097500000000e+01 6.119293069613e-01 
3.097500000000e+01 6.119293069613e-01 
3.097500000000e+01 6.119293069613e-01 
3.097500000000e+01 6.119293069613e-01 
3.097500000000e+01 6.119293069613e-01 
3.100000000000e+01 6.078092818871e-01 
3.100000000000e+01 6.078092818871e-01 
3.100000000000e+01 6.078092818871e-01 
3.100000000000e+01 6.078092818871e-01 
3.100000000000e+01 6.078092818871e-01 
3.102500000000e+01 6.038048953494e-01 
3.102500000000e+01 6.038048953494e-01 
3.102500000000e+01 6.038048953494e-01 
3.102500000000e+01 6.038048953494e-01 
3.102500000000e+01 6.038048953494e-01 
3.105000000000e+01 5.999107290013e-01 
3.105000000000e+01 5.999107290013e-01 
3.105000000000e+01 5.999107290013e-01 
3.105000000000e+01 5.999107290013e-01 
3.105000000000e+01 5.999107290013e-01 
3.107500000000e+01 5.961217113309e-01 
3.107500000000e+01 5.961217113309e-01 
3.107500000000e+01 5.961217113309e-01 
3.107500000000e+01 5.961217113309e-01 
3.107500000000e+01 5.961217113309e-01 
3.110000000000e+01 5.924330900627e-01 
3.110000000000e+01 5.924330900627e-01 
3.110000000000e+01 5.924330900627e-01 
3.110000000000e+01 5.924330900627e-01 
3.110000000000e+01 5.924330900627e-01 
3.112500000000e+01 5.888404071392e-01 
3.112500000000e+01 5.888404071392e-01 
3.112500000000e+01 5.888404071392e-01 
3.112500000000e+01 5.888404071392e-01 
3.112500000000e+01 5.888404071392e-01 
3.115000000000e+01 5.853394760078e-01 
3.115000000000e+01 5.853394760078e-01 
3.115000000000e+01 5.853394760078e-01 
3.115000000000e+01 5.853394760078e-01 
3.115000000000e+01 5.853394760078e-01 
3.117500000000e+01 5.819263609758e-01 
3.117500000000e+01 5.819263609758e-01 
3.117500000000e+01 5.819263609758e-01 
3.117500000000e+01 5.819263609758e-01 
3.117500000000e+01 5.819263609758e-01 
3.120000000000e+01 5.785973584173e-01 
3.120000000000e+01 5.785973584173e-01 
3.120000000000e+01 5.785973584173e-01 
3.120000000000e+01 5.785973584173e-01 
3.120000000000e+01 5.785973584173e-01 
3.122500000000e+01 5.753489796460e-01 
3.122500000000e+01 5.753489796460e-01 
3.122500000000e+01 5.753489796460e-01 
3.122500000000e+01 5.753489796460e-01 
3.122500000000e+01 5.753489796460e-01 
3.125000000000e+01 5.721779352840e-01 
3.125000000000e+01 5.721779352840e-01 
3.125000000000e+01 5.721779352840e-01 
3.125000000000e+01 5.721779352840e-01 
3.125000000000e+01 5.721779352840e-01 
3.127500000000e+01 5.690811209785e-01 
3.127500000000e+01 5.690811209785e-01 
3.127500000000e+01 5.690811209785e-01 
3.127500000000e+01 5.690811209785e-01 
3.127500000000e+01 5.690811209785e-01 
3.130000000000e+01 5.660556043336e-01 
3.130000000000e+01 5.660556043336e-01 
3.130000000000e+01 5.660556043336e-01 
3.130000000000e+01 5.660556043336e-01 
3.130000000000e+01 5.660556043336e-01 
3.132500000000e+01 5.630986129391e-01 
3.132500000000e+01 5.630986129391e-01 
3.132500000000e+01 5.630986129391e-01 
3.132500000000e+01 5.630986129391e-01 
3.132500000000e+01 5.630986129391e-01 
3.135000000000e+01 5.602075233904e-01 
3.135000000000e+01 5.602075233904e-01 
3.135000000000e+01 5.602075233904e-01 
3.135000000000e+01 5.602075233904e-01 
3.135000000000e+01 5.602075233904e-01 
3.137500000000e+01 5.573798512060e-01 
3.137500000000e+01 5.573798512060e-01 
3.137500000000e+01 5.573798512060e-01 
3.137500000000e+01 5.573798512060e-01 
3.137500000000e+01 5.573798512060e-01 
3.140000000000e+01 5.546132415581e-01 
3.140000000000e+01 5.546132415581e-01 
3.140000000000e+01 5.546132415581e-01 
3.140000000000e+01 5.546132415581e-01 
3.140000000000e+01 5.546132415581e-01 
3.142500000000e+01 5.519054607414e-01 
3.142500000000e+01 5.519054607414e-01 
3.142500000000e+01 5.519054607414e-01 
3.142500000000e+01 5.519054607414e-01 
3.142500000000e+01 5.519054607414e-01 
3.145000000000e+01 5.492543883110e-01 
3.145000000000e+01 5.492543883110e-01 
3.145000000000e+01 5.492543883110e-01 
3.145000000000e+01 5.492543883110e-01 
3.145000000000e+01 5.492543883110e-01 
3.147500000000e+01 5.466580098318e-01 
3.147500000000e+01 5.466580098318e-01 
3.147500000000e+01 5.466580098318e-01 
3.147500000000e+01 5.466580098318e-01 
3.147500000000e+01 5.466580098318e-01 
3.150000000000e+01 5.441144101810e-01 
3.150000000000e+01 5.441144101810e-01 
3.150000000000e+01 5.441144101810e-01 
3.150000000000e+01 5.441144101810e-01 
3.150000000000e+01 5.441144101810e-01 
3.152500000000e+01 5.416217673588e-01 
3.152500000000e+01 5.416217673588e-01 
3.152500000000e+01 5.416217673588e-01 
3.152500000000e+01 5.416217673588e-01 
3.152500000000e+01 5.416217673588e-01 
3.155000000000e+01 5.391783467591e-01 
3.155000000000e+01 5.391783467591e-01 
3.155000000000e+01 5.391783467591e-01 
3.155000000000e+01 5.391783467591e-01 
3.155000000000e+01 5.391783467591e-01 
3.157500000000e+01 5.367824958643e-01 
3.157500000000e+01 5.367824958643e-01 
3.157500000000e+01 5.367824958643e-01 
3.157500000000e+01 5.367824958643e-01 
3.157500000000e+01 5.367824958643e-01 
3.160000000000e+01 5.344326393247e-01 
3.160000000000e+01 5.344326393247e-01 
3.160000000000e+01 5.344326393247e-01 
3.160000000000e+01 5.344326393247e-01 
3.160000000000e+01 5.344326393247e-01 
3.162500000000e+01 5.321272743928e-01 
3.162500000000e+01 5.321272743928e-01 
3.162500000000e+01 5.321272743928e-01 
3.162500000000e+01 5.321272743928e-01 
3.162500000000e+01 5.321272743928e-01 
3.165000000000e+01 5.298649666811e-01 
3.165000000000e+01 5.298649666811e-01 
3.165000000000e+01 5.298649666811e-01 
3.165000000000e+01 5.298649666811e-01 
3.165000000000e+01 5.298649666811e-01 
3.167500000000e+01 5.276443462180e-01 
3.167500000000e+01 5.276443462180e-01 
3.167500000000e+01 5.276443462180e-01 
3.167500000000e+01 5.276443462180e-01 
3.167500000000e+01 5.276443462180e-01 
3.170000000000e+01 5.254641037767e-01 
3.170000000000e+01 5.254641037767e-01 
3.170000000000e+01 5.254641037767e-01 
3.170000000000e+01 5.254641037767e-01 
3.170000000000e+01 5.254641037767e-01 
3.172500000000e+01 5.233229874560e-01 
3.172500000000e+01 5.233229874560e-01 
3.172500000000e+01 5.233229874560e-01 
3.172500000000e+01 5.233229874560e-01 
3.172500000000e+01 5.233229874560e-01 
3.175000000000e+01 5.212197994921e-01 
3.175000000000e+01 5.212197994921e-01 
3.175000000000e+01 5.212197994921e-01 
3.175000000000e+01 5.212197994921e-01 
3.175000000000e+01 5.212197994921e-01 
3.177500000000e+01 5.191533932842e-01 
3.177500000000e+01 5.191533932842e-01 
3.177500000000e+01 5.191533932842e-01 
3.177500000000e+01 5.191533932842e-01 
3.177500000000e+01 5.191533932842e-01 
3.180000000000e+01 5.171226706164e-01 
3.180000000000e+01 5.171226706164e-01 
3.180000000000e+01 5.171226706164e-01 
3.180000000000e+01 5.171226706164e-01 
3.180000000000e+01 5.171226706164e-01 
3.182500000000e+01 5.151265790614e-01 
3.182500000000e+01 5.151265790614e-01 
3.182500000000e+01 5.151265790614e-01 
3.182500000000e+01 5.151265790614e-01 
3.182500000000e+01 5.151265790614e-01 
3.185000000000e+01 5.131641095520e-01 
3.185000000000e+01 5.131641095520e-01 
3.185000000000e+01 5.131641095520e-01 
3.185000000000e+01 5.131641095520e-01 
3.185000000000e+01 5.131641095520e-01 
3.187500000000e+01 5.112342941078e-01 
3.187500000000e+01 5.112342941078e-01 
3.187500000000e+01 5.112342941078e-01 
3.187500000000e+01 5.112342941078e-01 
3.187500000000e+01 5.112342941078e-01 
3.190000000000e+01 5.093362037054e-01 
3.190000000000e+01 5.093362037054e-01 
3.190000000000e+01 5.093362037054e-01 
3.190000000000e+01 5.093362037054e-01 
3.190000000000e+01 5.093362037054e-01 
3.192500000000e+01 5.074689462822e-01 
3.192500000000e+01 5.074689462822e-01 
3.192500000000e+01 5.074689462822e-01 
3.192500000000e+01 5.074689462822e-01 
3.192500000000e+01 5.074689462822e-01 
3.195000000000e+01 5.056316648631e-01 
3.195000000000e+01 5.056316648631e-01 
3.195000000000e+01 5.056316648631e-01 
3.195000000000e+01 5.056316648631e-01 
3.195000000000e+01 5.056316648631e-01 
3.197500000000e+01 5.038235358020e-01 
3.197500000000e+01 5.038235358020e-01 
3.197500000000e+01 5.038235358020e-01 
3.197500000000e+01 5.038235358020e-01 
3.197500000000e+01 5.038235358020e-01 
3.200000000000e+01 5.009667736118e-01 
3.200000000000e+01 5.009729172406e-01 
3.200000000000e+01 5.009759847327e-01 
3.200000000000e+01 5.009698468653e-01 
3.200000000000e+01 5.009790493366e-01 
3.317632745704e+01 4.393452789793e-01 
3.317832806659e+01 4.392642273402e-01 
3.318032867614e+01 4.391832395544e-01 
3.318232928568e+01 4.391023155365e-01 
3.318432989523e+01 4.390214552012e-01 
3.435265491408e+01 4.024569562153e-01 
3.435665613318e+01 4.023518495221e-01 
3.436065735227e+01 4.022468687715e-01 
3.436465857137e+01 4.021420137021e-01 
3.436865979046e+01 4.020372840533e-01 
3.552898237112e+01 3.765028548196e-01 
3.553498419977e+01 3.763880928293e-01 
3.554098602841e+01 3.762734941866e-01 
3.554698785705e+01 3.761590584866e-01 
3.555298968569e+01 3.760447853260e-01 
3.670530982816e+01 3.568680265639e-01 
3.671331226635e+01 3.567494489406e-01 
3.672131470454e+01 3.566310574233e-01 
3.672931714273e+01 3.565128515028e-01 
3.673731958092e+01 3.563948306718e-01 
3.788163728521e+01 3.412673094242e-01 
3.789164033294e+01 3.411475860239e-01 
3.790164338068e+01 3.410280628574e-01 
3.791164642842e+01 3.409087393405e-01 
3.792164947615e+01 3.407896148913e-01 
 TITLE = "Profiles along polylines"
 VARIABLES = "DIST" "SATURATION1" 
 ZONE T="TIME=1.797693134862e+308"
2.881637285206e+00 1.000000000000e+00 
2.891640332943e+00 1.000000000000e+00 
2.901643380680e+00 1.000000000000e+00 
2.911646428417e+00 1.000000000000e+00 
2.921649476154e+00 1.000000000000e+00 
3.785582709032e+00 1.000000000000e+00 
3.795252321845e+00 1.000000000000e+00 
3.804921934657e+00 1.000000000000e+00 
3.814591547469e+00 1.000000000000e+00 
3.824261160282e+00 1.000000000000e+00 
4.689528132858e+00 1.000000000000e+00 
4.698864310746e+00 1.000000000000e+00 
4.708200488634e+00 1.000000000000e+00 
4.717536666522e+00 1.000000000000e+00 
4.726872844409e+00 1.000000000000e+00 
5.593473556685e+00 1.000000000000e+00 
5.602476299648e+00 1.000000000000e+00 
5.611479042612e+00 1.000000000000e+00 
5.620481785575e+00 1.000000000000e+00 
5.629484528538e+00 1.000000000000e+00 
6.497418980512e+00 1.000000000000e+00 
6.506088288550e+00 1.000000000000e+00 
6.514757596589e+00 1.000000000000e+00 
6.523426904628e+00 1.000000000000e+00 
6.532096212666e+00 1.000000000000e+00 
7.401364404338e+00 1.000000000000e+00 
7.409700277452e+00 1.000000000000e+00 
7.418036150566e+00 1.000000000000e+00 
7.426372023680e+00 1.000000000000e+00 
7.434707896794e+00 1.000000000000e+00 
8.305309828163e+00 1.000000000000e+00 
8.313312266353e+00 1.000000000000e+00 
8.321314704542e+00 1.000000000000e+00 
8.329317142732e+00 1.000000000000e+00 
8.337319580921e+00 1.000000000000e+00 
9.209255251989e+00 1.000000000000e+00 
9.216924255254e+00 1.000000000000e+00 
9.224593258519e+00 1.000000000000e+00 
9.232262261784e+00 1.000000000000e+00 
9.239931265049e+00 1.000000000000e+00 
1.011320067581e+01 1.000000000000e+00 
1.012053624416e+01 1.000000000000e+00 
1.012787181250e+01 1.000000000000e+00 
1.013520738084e+01 1.000000000000e+00 
1.014254294918e+01 1.000000000000e+00 
1.101714609964e+01 1.000000000000e+00 
1.102414823305e+01 1.000000000000e+00 
1.103115036647e+01 1.000000000000e+00 
1.103815249989e+01 1.000000000000e+00 
1.104515463330e+01 1.000000000000e+00 
1.192109152346e+01 1.000000000000e+00 
1.192776022195e+01 1.000000000000e+00 
1.193442892044e+01 1.000000000000e+00 
1.194109761894e+01 1.000000000000e+00 
1.194776631743e+01 1.000000000000e+00 
1.282503694729e+01 1.000000000000e+00 
1.283137221085e+01 1.000000000000e+00 
1.283770747442e+01 1.000000000000e+00 
1.284404273799e+01 1.000000000000e+00 
1.285037800155e+01 1.000000000000e+00 
1.372898237111e+01 1.000000000000e+00 
1.373498419975e+01 1.000000000000e+00 
1.374098602839e+01 1.000000000000e+00 
1.374698785704e+01 1.000000000000e+00 
1.375298968568e+01 1.000000000000e+00 
1.463292779493e+01 1.000000000000e+00 
1.463859618865e+01 1.000000000000e+00 
1.464426458237e+01 1.000000000000e+00 
1.464993297609e+01 1.000000000000e+00 
1.465560136980e+01 1.000000000000e+00 
1.553687321876e+01 1.000000000000e+00 
1.554220817755e+01 1.000000000000e+00 
1.554754313634e+01 1.000000000000e+00 
1.555287809514e+01 1.000000000000e+00 
1.555821305393e+01 1.000000000000e+00 
1.644081864258e+01 1.000000000000e+00 
1.644582016645e+01 1.000000000000e+00 
1.645082169032e+01 1.000000000000e+00 
1.645582321419e+01 1.000000000000e+00 
1.646082473805e+01 1.000000000000e+00 
1.734476406641e+01 1.000000000000e+00 
1.734943215535e+01 1.000000000000e+00 
1.735410024430e+01 1.000000000000e+00 
1.735876833324e+01 1.000000000000e+00 
1.736343642218e+01 1.000000000000e+00 
1.824870949024e+01 1.000000000000e+00 
1.825304414426e+01 1.000000000000e+00 
1.825737879827e+01 1.000000000000e+00 
1.826171345229e+01 1.000000000000e+00 
1.826604810631e+01 1.000000000000e+00 
1.915265491406e+01 1.000000000000e+00 
1.915665613316e+01 1.000000000000e+00 
1.916065735225e+01 1.000000000000e+00 
1.916465857135e+01 1.000000000000e+00 
1.916865979044e+01 1.000000000000e+00 
2.005660033789e+01 1.000000000000e+00 
2.006026812206e+01 1.000000000000e+00 
2.006393590623e+01 1.000000000000e+00 
2.006760369040e+01 1.000000000000e+00 
2.007127147457e+01 1.000000000000e+00 
2.096054576172e+01 1.000000000000e+00 
2.096388011097e+01 1.000000000000e+00 
2.096721446021e+01 1.000000000000e+00 
2.097054880946e+01 1.000000000000e+00 
2.097388315870e+01 1.000000000000e+00 
2.186449118555e+01 1.000000000000e+00 
2.186749209987e+01 1.000000000000e+00 
2.187049301419e+01 1.000000000000e+00 
2.187349392851e+01 1.000000000000e+00 
2.187649484283e+01 1.000000000000e+00 
2.276843660938e+01 1.000000000000e+00 
2.277110408877e+01 1.000000000000e+00 
2.277377156817e+01 1.000000000000e+00 
2.277643904757e+01 1.000000000000e+00 
2.277910652696e+01 1.000000000000e+00 
2.367238203320e+01 1.000000000000e+00 
2.367471607768e+01 1.000000000000e+00 
2.367705012215e+01 1.000000000000e+00 
2.367938416662e+01 1.000000000000e+00 
2.368171821109e+01 1.000000000000e+00 
2.457632745703e+01 1.000000000000e+00 
2.457832806658e+01 1.000000000000e+00 
2.458032867613e+01 1.000000000000e+00 
2.458232928567e+01 1.000000000000e+00 
2.458432989522e+01 1.000000000000e+00 
2.548027288086e+01 1.000000000000e+00 
2.548194005548e+01 1.000000000000e+00 
2.548360723011e+01 1.000000000000e+00 
2.548527440473e+01 1.000000000000e+00 
2.548694157935e+01 1.000000000000e+00 
2.638421830469e+01 1.000000000000e+00 
2.638555204439e+01 1.000000000000e+00 
2.638688578408e+01 1.000000000000e+00 
2.638821952378e+01 1.000000000000e+00 
2.638955326348e+01 1.000000000000e+00 
2.728816372852e+01 1.000000000000e+00 
2.728916403329e+01 1.000000000000e+00 
2.729016433806e+01 1.000000000000e+00 
2.729116464284e+01 1.000000000000e+00 
2.729216494761e+01 1.000000000000e+00 
2.819210915234e+01 1.000000000000e+00 
2.819277602219e+01 1.000000000000e+00 
2.819344289204e+01 1.000000000000e+00 
2.819410976189e+01 1.000000000000e+00 
2.819477663174e+01 1.000000000000e+00 
2.909605457617e+01 1.000000000000e+00 
2.909638801110e+01 1.000000000000e+00 
2.909672144602e+01 1.000000000000e+00 
2.909705488095e+01 1.000000000000e+00 
2.909738831587e+01 1.000000000000e+00 
3.000000000000e+01 1.000000000000e+00 
3.000000000000e+01 1.000000000000e+00 
3.000000000000e+01 1.000000000000e+00 
3.000000000000e+01 1.000000000000e+00 
3.000000000000e+01 1.000000000000e+00 
3.002500000000e+01 1.000000000000e+00 
3.002500000000e+01 1.000000000000e+00 
3.002500000000e+01 1.000000000000e+00 
3.002500000000e+01 1.000000000000e+00 
3.002500000000e+01 1.000000000000e+00 
3.005000000000e+01 1.000000000000e+00 
3.005000000000e+01 1.000000000000e+00 
3.005000000000e+01 1.000000000000e+00 
3.005000000000e+01 1.000000000000e+00 
3.005000000000e+01 1.000000000000e+00 
3.007500000000e+01 1.000000000000e+00 
3.007500000000e+01 1.000000000000e+00 
3.007500000000e+01 1.000000000000e+00 
3.007500000000e+01 1.000000000000e+00 
3.007500000000e+01 1.000000000000e+00 
3.010000000000e+01 1.000000000000e+00 
3.010000000000e+01 1.000000000000e+00 
3.010000000000e+01 1.000000000000e+00 
3.010000000000e+01 1.000000000000e+00 
3.010000000000e+01 1.000000000000e+00 
3.012500000000e+01 1.000000000000e+00 
3.012500000000e+01 1.000000000000e+00 
3.012500000000e+01 1.000000000000e+00 
3.012500000000e+01 1.000000000000e+00 
3.012500000000e+01 1.000000000000e+00 
3.015000000000e+01 1.000000000000e+00 
3.015000000000e+01 1.000000000000e+00 
3.015000000000e+01 1.000000000000e+00 