 TITLE = "Profiles along polylines"
 VARIABLES = "DIST" "SATURATION1" 
 ZONE T="TIME=0.000000000000e+00"
1.440492888203e+00 1.000000000000e+00 
1.445494599620e+00 1.000000000000e+00 
1.450496311037e+00 1.000000000000e+00 
1.455498022455e+00 1.000000000000e+00 
1.460499733872e+00 1.000000000000e+00 
2.392476458596e+00 1.000000000000e+00 
2.397311446299e+00 1.000000000000e+00 
2.402146434003e+00 1.000000000000e+00 
2.406981421706e+00 1.000000000000e+00 
2.411816409410e+00 1.000000000000e+00 
3.344460028988e+00 1.000000000000e+00 
3.349128292978e+00 1.000000000000e+00 
3.353796556968e+00 1.000000000000e+00 
3.358464820957e+00 1.000000000000e+00 
3.363133084947e+00 1.000000000000e+00 
4.296443599382e+00 1.000000000000e+00 
4.300945139658e+00 1.000000000000e+00 
4.305446679933e+00 1.000000000000e+00 
4.309948220209e+00 1.000000000000e+00 
4.314449760485e+00 1.000000000000e+00 
5.248427169775e+00 1.000000000000e+00 
5.252761986337e+00 1.000000000000e+00 
5.257096802899e+00 1.000000000000e+00 
5.261431619461e+00 1.000000000000e+00 
5.265766436022e+00 1.000000000000e+00 
6.200410740168e+00 1.000000000000e+00 
6.204578833016e+00 1.000000000000e+00 
6.208746925864e+00 1.000000000000e+00 
6.212915018711e+00 1.000000000000e+00 
6.217083111559e+00 1.000000000000e+00 
7.152394310560e+00 1.000000000000e+00 
7.156395679694e+00 1.000000000000e+00 
7.160397048828e+00 1.000000000000e+00 
7.164398417962e+00 1.000000000000e+00 
7.168399787096e+00 1.000000000000e+00 
8.104377880953e+00 1.000000000000e+00 
8.108212526373e+00 1.000000000000e+00 
8.112047171793e+00 1.000000000000e+00 
8.115881817213e+00 1.000000000000e+00 
8.119716462633e+00 1.000000000000e+00 
9.056361451345e+00 1.000000000000e+00 
9.060029373051e+00 1.000000000000e+00 
9.063697294757e+00 1.000000000000e+00 
9.067365216464e+00 1.000000000000e+00 
9.071033138170e+00 1.000000000000e+00 
1.000834502174e+01 1.000000000000e+00 
1.001184621973e+01 1.000000000000e+00 
1.001534741772e+01 1.000000000000e+00 
1.001884861571e+01 1.000000000000e+00 
1.002234981370e+01 1.000000000000e+00 
1.096032859213e+01 1.000000000000e+00 
1.096366306640e+01 1.000000000000e+00 
1.096699754068e+01 1.000000000000e+00 
1.097033201496e+01 1.000000000000e+00 
1.097366648924e+01 1.000000000000e+00 
1.191231216252e+01 1.000000000000e+00 
1.191547991308e+01 1.000000000000e+00 
1.191864766364e+01 1.000000000000e+00 
1.192181541421e+01 1.000000000000e+00 
1.192498316477e+01 1.000000000000e+00 
1.286429573291e+01 1.000000000000e+00 
1.286729675976e+01 1.000000000000e+00 
1.287029778661e+01 1.000000000000e+00 
1.287329881346e+01 1.000000000000e+00 
1.287629984031e+01 1.000000000000e+00 
1.381627930330e+01 1.000000000000e+00 
1.381911360643e+01 1.000000000000e+00 
1.382194790957e+01 1.000000000000e+00 
1.382478221270e+01 1.000000000000e+00 
1.382761651584e+01 1.000000000000e+00 
1.476826287369e+01 1.000000000000e+00 
1.477093045311e+01 1.000000000000e+00 
1.477359803253e+01 1.000000000000e+00 
1.477626561195e+01 1.000000000000e+00 
1.477893319138e+01 1.000000000000e+00 
1.572024644408e+01 1.000000000000e+00 
1.572274729978e+01 1.000000000000e+00 
1.572524815549e+01 1.000000000000e+00 
1.572774901120e+01 1.000000000000e+00 
1.573024986691e+01 1.000000000000e+00 
1.667223001447e+01 1.000000000000e+00 
1.667456414646e+01 1.000000000000e+00 
1.667689827846e+01 1.000000000000e+00 
1.667923241045e+01 1.000000000000e+00 
1.668156654245e+01 1.000000000000e+00 
1.762421358486e+01 1.000000000000e+00 
1.762638099315e+01 1.000000000000e+00 
1.762854840143e+01 1.000000000000e+00 
1.763071580971e+01 1.000000000000e+00 
1.763288321799e+01 1.000000000000e+00 
1.857619715526e+01 1.000000000000e+00 
1.857819783983e+01 1.000000000000e+00 
1.858019852439e+01 1.000000000000e+00 
1.858219920896e+01 1.000000000000e+00 
1.858419989353e+01 1.000000000000e+00 
1.952818072566e+01 1.000000000000e+00 
1.953001468651e+01 1.000000000000e+00 
1.953184864736e+01 1.000000000000e+00 
1.953368260821e+01 1.000000000000e+00 
1.953551656907e+01 1.000000000000e+00 
2.048016429605e+01 1.000000000000e+00 
2.048183153319e+01 1.000000000000e+00 
2.048349877033e+01 1.000000000000e+00 
2.048516600747e+01 1.000000000000e+00 
2.048683324461e+01 1.000000000000e+00 
2.143214786644e+01 1.000000000000e+00 
2.143364837987e+01 1.000000000000e+00 
2.143514889330e+01 1.000000000000e+00 
2.143664940672e+01 1.000000000000e+00 
2.143814992015e+01 1.000000000000e+00 
2.238413143684e+01 1.000000000000e+00 
2.238546522655e+01 1.000000000000e+00 
2.238679901626e+01 1.000000000000e+00 
2.238813280597e+01 1.000000000000e+00 
2.238946659569e+01 1.000000000000e+00 
2.333611500724e+01 1.000000000000e+00 
2.333728207323e+01 1.000000000000e+00 
2.333844913923e+01 1.000000000000e+00 
2.333961620523e+01 1.000000000000e+00 
2.334078327122e+01 1.000000000000e+00 
2.428809857763e+01 1.000000000000e+00 
2.428909891991e+01 1.000000000000e+00 
2.429009926220e+01 1.000000000000e+00 
2.429109960448e+01 1.000000000000e+00 
2.429209994676e+01 1.000000000000e+00 
2.524008214802e+01 1.000000000000e+00 
2.524091576659e+01 1.000000000000e+00 
2.524174938516e+01 1.000000000000e+00 
2.524258300373e+01 1.000000000000e+00 
2.524341662230e+01 1.000000000000e+00 
2.619206571842e+01 1.000000000000e+00 
2.619273261328e+01 1.000000000000e+00 
2.619339950813e+01 1.000000000000e+00 
2.619406640299e+01 1.000000000000e+00 
2.619473329784e+01 1.000000000000e+00 
2.714404928881e+01 1.000000000000e+00 
2.714454945996e+01 1.000000000000e+00 
2.714504963110e+01 1.000000000000e+00 
2.714554980224e+01 1.000000000000e+00 
2.714604997338e+01 1.000000000000e+00 
2.809603285921e+01 1.000000000000e+00 
2.809636630664e+01 1.000000000000e+00 
2.809669975407e+01 1.000000000000e+00 
2.809703320149e+01 1.000000000000e+00 
2.809736664892e+01 1.000000000000e+00 
2.904801642960e+01 1.000000000000e+00 
2.904818315332e+01 1.000000000000e+00 
2.904834987703e+01 1.000000000000e+00 
2.904851660075e+01 1.000000000000e+00 
2.904868332446e+01 1.000000000000e+00 
3.000000000000e+01 1.000000000000e+00 
3.000000000000e+01 1.000000000000e+00 
3.000000000000e+01 1.000000000000e+00 
3.000000000000e+01 1.000000000000e+00 
3.000000000000e+01 1.000000000000e+00 
3.002500000000e+01 9.876207709446e-01 
3.002500000000e+01 9.876207709446e-01 
3.002500000000e+01 9.876207709446e-01 
3.002500000000e+01 9.876207709446e-01 
3.002500000000e+01 9.876207709446e-01 
3.005000000000e+01 9.697756439369e-01 
3.005000000000e+01 9.697756439369e-01 
3.005000000000e+01 9.697756439369e-01 
3.005000000000e+01 9.697756439369e-01 
3.005000000000e+01 9.697756439369e-01 
3.007500000000e+01 9.507134089444e-01 
3.007500000000e+01 9.507134089444e-01 
3.007500000000e+01 9.507134089444e-01 
3.007500000000e+01 9.507134089444e-01 
3.007500000000e+01 9.507134089444e-01 
3.010000000000e+01 9.315621650298e-01 
3.010000000000e+01 9.315621650298e-01 
3.010000000000e+01 9.315621650298e-01 
3.010000000000e+01 9.315621650298e-01 
3.010000000000e+01 9.315621650298e-01 
3.012500000000e+01 9.128758324042e-01 
3.012500000000e+01 9.128758324042e-01 
3.012500000000e+01 9.128758324042e-01 
3.012500000000e+01 9.128758324042e-01 
3.012500000000e+01 9.128758324042e-01 
3.015000000000e+01 8.949248043380e-01 
3.015000000000e+01 8.949248043380e-01 
3.015000000000e+01 8.949248043380e-01 
3.015000000000e+01 8.949248043380e-01 
3.015000000000e+01 8.949248043380e-01 
3.017500000000e+01 8.778290027968e-01 
3.017500000000e+01 8.778290027968e-01 
3.017500000000e+01 8.778290027968e-01 
3.017500000000e+01 8.778290027968e-01 
3.017500000000e+01 8.778290027968e-01 
3.020000000000e+01 8.616255702900e-01 
3.020000000000e+01 8.616255702900e-01 
3.020000000000e+01 8.616255702900e-01 
3.020000000000e+01 8.616255702900e-01 
3.020000000000e+01 8.616255702900e-01 
3.022500000000e+01 8.463059583920e-01 
3.022500000000e+01 8.463059583920e-01 
3.022500000000e+01 8.463059583920e-01 
3.022500000000e+01 8.463059583920e-01 
3.022500000000e+01 8.463059583920e-01 
3.025000000000e+01 8.318370344398e-01 
3.025000000000e+01 8.318370344398e-01 
3.025000000000e+01 8.318370344398e-01 
3.025000000000e+01 8.318370344398e-01 
3.025000000000e+01 8.318370344398e-01 
3.027500000000e+01 8.181733156316e-01 
3.027500000000e+01 8.181733156316e-01 
3.027500000000e+01 8.181733156316e-01 
3.027500000000e+01 8.181733156316e-01 
3.027500000000e+01 8.181733156316e-01 
3.030000000000e+01 8.052640970350e-01 
3.030000000000e+01 8.052640970350e-01 
3.030000000000e+01 8.052640970350e-01 
3.030000000000e+01 8.052640970350e-01 
3.030000000000e+01 8.052640970350e-01 
3.032500000000e+01 7.930575753856e-01 
3.032500000000e+01 7.930575753856e-01 
3.032500000000e+01 7.930575753856e-01 
3.032500000000e+01 7.930575753856e-01 
3.032500000000e+01 7.930575753856e-01 
3.035000000000e+01 7.815031815402e-01 
3.035000000000e+01 7.815031815402e-01 
3.035000000000e+01 7.815031815402e-01 
3.035000000000e+01 7.815031815402e-01 
3.035000000000e+01 7.815031815402e-01 
3.037500000000e+01 7.705528376764e-01 
3.037500000000e+01 7.705528376764e-01 
3.037500000000e+01 7.705528376764e-01 
3.037500000000e+01 7.705528376764e-01 
3.037500000000e+01 7.705528376764e-01 
3.040000000000e+01 7.601615689674e-01 
3.040000000000e+01 7.601615689674e-01 
3.040000000000e+01 7.601615689674e-01 
3.040000000000e+01 7.601615689674e-01 
3.040000000000e+01 7.601615689674e-01 
3.042500000000e+01 7.502877306002e-01 
3.042500000000e+01 7.502877306002e-01 
3.042500000000e+01 7.502877306002e-01 
3.042500000000e+01 7.502877306002e-01 
3.042500000000e+01 7.502877306002e-01 
3.045000000000e+01 7.408930096824e-01 
3.045000000000e+01 7.408930096824e-01 
3.045000000000e+01 7.408930096824e-01 
3.045000000000e+01 7.408930096824e-01 
3.045000000000e+01 7.408930096824e-01 
3.047500000000e+01 7.319422999608e-01 
3.047500000000e+01 7.319422999608e-01 
3.047500000000e+01 7.319422999608e-01 
3.047500000000e+01 7.319422999608e-01 
3.047500000000e+01 7.319422999608e-01 
3.050000000000e+01 7.234035093991e-01 
3.050000000000e+01 7.234035093991e-01 
3.050000000000e+01 7.234035093991e-01 
3.050000000000e+01 7.234035093991e-01 
3.050000000000e+01 7.234035093991e-01 
3.052500000000e+01 7.152473371957e-01 
3.052500000000e+01 7.152473371957e-01 
3.052500000000e+01 7.152473371957e-01 
3.052500000000e+01 7.152473371957e-01 
3.052500000000e+01 7.152473371957e-01 
3.055000000000e+01 7.074470422112e-01 
3.055000000000e+01 7.074470422112e-01 
3.055000000000e+01 7.074470422112e-01 
3.055000000000e+01 7.074470422112e-01 
3.055000000000e+01 7.074470422112e-01 
3.057500000000e+01 6.999782156504e-01 
3.057500000000e+01 6.999782156504e-01 
3.057500000000e+01 6.999782156504e-01 
3.057500000000e+01 6.999782156504e-01 
3.057500000000e+01 6.999782156504e-01 
3.060000000000e+01 6.928185651596e-01 
3.060000000000e+01 6.928185651596e-01 
3.060000000000e+01 6.928185651596e-01 
3.060000000000e+01 6.928185651596e-01 
3.060000000000e+01 6.928185651596e-01 
3.062500000000e+01 6.859477139679e-01 
3.062500000000e+01 6.859477139679e-01 
3.062500000000e+01 6.859477139679e-01 
3.062500000000e+01 6.859477139679e-01 
3.062500000000e+01 6.859477139679e-01 
3.065000000000e+01 6.793470165436e-01 
3.065000000000e+01 6.793470165436e-01 
3.065000000000e+01 6.793470165436e-01 
3.065000000000e+01 6.793470165436e-01 
3.065000000000e+01 6.793470165436e-01 
3.067500000000e+01 6.729993909360e-01 
3.067500000000e+01 6.729993909360e-01 
3.067500000000e+01 6.729993909360e-01 
3.067500000000e+01 6.729993909360e-01 
3.067500000000e+01 6.729993909360e-01 
3.070000000000e+01 6.668891672206e-01 
3.070000000000e+01 6.668891672206e-01 
3.070000000000e+01 6.668891672206e-01 
3.070000000000e+01 6.668891672206e-01 
3.070000000000e+01 6.668891672206e-01 
3.072500000000e+01 6.610019510587e-01 
3.072500000000e+01 6.610019510587e-01 
3.072500000000e+01 6.610019510587e-01 
3.072500000000e+01 6.610019510587e-01 
3.072500000000e+01 6.610019510587e-01 
3.075000000000e+01 6.553245011865e-01 
3.075000000000e+01 6.553245011865e-01 
3.075000000000e+01 6.553245011865e-01 
3.075000000000e+01 6.553245011865e-01 
3.075000000000e+01 6.553245011865e-01 
3.077500000000e+01 6.498446195878e-01 
3.077500000000e+01 6.498446195878e-01 
3.077500000000e+01 6.498446195878e-01 
3.077500000000e+01 6.498446195878e-01 
3.077500000000e+01 6.498446195878e-01 
3.080000000000e+01 6.445510531188e-01 
3.080000000000e+01 6.445510531188e-01 
3.080000000000e+01 6.445510531188e-01 
3.080000000000e+01 6.445510531188e-01 
3.080000000000e+01 6.445510531188e-01 
3.082500000000e+01 6.394334054150e-01 
3.082500000000e+01 6.394334054150e-01 
3.082500000000e+01 6.394334054150e-01 
3.082500000000e+01 6.394334054150e-01 
3.082500000000e+01 6.394334054150e-01 
3.085000000000e+01 6.344820579917e-01 
3.085000000000e+01 6.344820579917e-01 
3.085000000000e+01 6.344820579917e-01 
3.085000000000e+01 6.344820579917e-01 
3.085000000000e+01 6.344820579917e-01 
3.087500000000e+01 6.296880995462e-01 
3.087500000000e+01 6.296880995462e-01 
3.087500000000e+01 6.296880995462e-01 
3.087500000000e+01 6.296880995462e-01 
3.087500000000e+01 6.296880995462e-01 
3.090000000000e+01 6.250432625624e-01 
3.090000000000e+01 6.250432625624e-01 
3.090000000000e+01 6.250432625624e-01 
3.090000000000e+01 6.250432625624e-01 
3.090000000000e+01 6.250432625624e-01 
3.092500000000e+01 6.205398664126e-01 
3.092500000000e+01 6.205398664126e-01 
3.092500000000e+01 6.205398664126e-01 
3.092500000000e+01 6.205398664126e-01 
3.092500000000e+01 6.205398664126e-01 
3.095000000000e+01 6.161707662369e-01 
3.095000000000e+01 6.161707662369e-01 
3.095000000000e+01 6.161707662369e-01 
3.095000000000e+01 6.161707662369e-01 
3.095000000000e+01 6.161707662369e-01 
3.097500000000e+01 6.119293069613e-01 
3.097500000000e+01 6.119293069613e-01 
3.097500000000e+01 6.119293069613e-01 
3.097500000000e+01 6.119293069613e-01 
3.097500000000e+01 6.119293069613e-01 
3.100000000000e+01 6.078092818871e-01 
3.100000000000e+01 6.078092818871e-01 
3.100000000000e+01 6.078092818871e-01 
3.100000000000e+01 6.078092818871e-01 
3.100000000000e+01 6.078092818871e-01 
3.102500000000e+01 6.038048953494e-01 
3.102500000000e+01 6.038048953494e-01 
3.102500000000e+01 6.038048953494e-01 
3.102500000000e+01 6.038048953494e-01 
3.102500000000e+01 6.038048953494e-01 
3.105000000000e+01 5.999107290013e-01 
3.105000000000e+01 5.999107290013e-01 
3.105000000000e+01 5.999107290013e-01 
3.105000000000e+01 5.999107290013e-01 
3.105000000000e+01 5.999107290013e-01 
3.107500000000e+01 5.961217113309e-01 
3.107500000000e+01 5.961217113309e-01 
3.107500000000e+01 5.961217113309e-01 
3.107500000000e+01 5.961217113309e-01 
3.107500000000e+01 5.961217113309e-01 
3.110000000000e+01 5.924330900627e-01 
3.110000000000e+01 5.924330900627e-01 
3.110000000000e+01 5.924330900627e-01 
3.110000000000e+01 5.924330900627e-01 
3.110000000000e+01 5.924330900627e-01 
3.112500000000e+01 5.888404071392e-01 
3.112500000000e+01 5.888404071392e-01 
3.112500000000e+01 5.888404071392e-01 
3.112500000000e+01 5.888404071392e-01 
3.112500000000e+01 5.888404071392e-01 
3.115000000000e+01 5.853394760078e-01 
3.115000000000e+01 5.853394760078e-01 
3.115000000000e+01 5.853394760078e-01 
3.115000000000e+01 5.853394760078e-01 
3.115000000000e+01 5.853394760078e-01 
3.117500000000e+01 5.819263609758e-01 
3.117500000000e+01 5.819263609758e-01 
3.117500000000e+01 5.819263609758e-01 
3.117500000000e+01 5.819263609758e-01 
3.117500000000e+01 5.819263609758e-01 
3.120000000000e+01 5.785973584173e-01 
3.120000000000e+01 5.785973584173e-01 
3.120000000000e+01 5.785973584173e-01 
3.120000000000e+01 5.785973584173e-01 
3.120000000000e+01 5.785973584173e-01 
3.122500000000e+01 5.753489796460e-01 
3.122500000000e+01 5.753489796460e-01 
3.122500000000e+01 5.753489796460e-01 
3.122500000000e+01 5.753489796460e-01 
3.122500000000e+01 5.753489796460e-01 
3.125000000000e+01 5.721779352840e-01 
3.125000000000e+01 5.721779352840e-01 
3.125000000000e+01 5.721779352840e-01 
3.125000000000e+01 5.721779352840e-01 
3.125000000000e+01 5.721779352840e-01 
3.127500000000e+01 5.690811209785e-01 
3.127500000000e+01 5.690811209785e-01 
3.127500000000e+01 5.690811209785e-01 
3.127500000000e+01 5.690811209785e-01 
3.127500000000e+01 5.690811209785e-01 
3.130000000000e+01 5.660556043336e-01 
3.130000000000e+01 5.660556043336e-01 
3.130000000000e+01 5.660556043336e-01 
3.130000000000e+01 5.660556043336e-01 
3.130000000000e+01 5.660556043336e-01 
3.132500000000e+01 5.630986129391e-01 
3.132500000000e+01 5.630986129391e-01 
3.132500000000e+01 5.630986129391e-01 
3.132500000000e+01 5.630986129391e-01 
3.132500000000e+01 5.630986129391e-01 
3.135000000000e+01 5.602075233904e-01 
3.135000000000e+01 5.602075233904e-01 
3.135000000000e+01 5.602075233904e-01 
3.135000000000e+01 5.602075233904e-01 
3.135000000000e+01 5.602075233904e-01 
3.137500000000e+01 5.573798512060e-01 
3.137500000000e+01 5.573798512060e-01 
3.137500000000e+01 5.573798512060e-01 
3.137500000000e+01 5.573798512060e-01 
3.137500000000e+01 5.573798512060e-01 
3.140000000000e+01 5.546132415581e-01 
3.140000000000e+01 5.546132415581e-01 
3.140000000000e+01 5.546132415581e-01 
3.140000000000e+01 5.546132415581e-01 
3.140000000000e+01 5.546132415581e-01 
3.142500000000e+01 5.519054607414e-01 
3.142500000000e+01 5.519054607414e-01 
3.142500000000e+01 5.519054607414e-01 
3.142500000000e+01 5.519054607414e-01 
3.142500000000e+01 5.519054607414e-01 
3.145000000000e+01 5.492543883110e-01 
3.145000000000e+01 5.492543883110e-01 
3.145000000000e+01 5.492543883110e-01 
3.145000000000e+01 5.492543883110e-01 
3.145000000000e+01 5.492543883110e-01 
3.147500000000e+01 5.466580098318e-01 
3.147500000000e+01 5.466580098318e-01 
3.147500000000e+01 5.466580098318e-01 
3.147500000000e+01 5.466580098318e-01 
3.147500000000e+01 5.466580098318e-01 
3.150000000000e+01 5.441144101810e-01 
3.150000000000e+01 5.441144101810e-01 
3.150000000000e+01 5.441144101810e-01 
3.150000000000e+01 5.441144101810e-01 
3.150000000000e+01 5.441144101810e-01 
3.152500000000e+01 5.416217673588e-01 
3.152500000000e+01 5.416217673588e-01 
3.152500000000e+01 5.416217673588e-01 
3.152500000000e+01 5.416217673588e-01 
3.152500000000e+01 5.416217673588e-01 
3.155000000000e+01 5.391783467591e-01 
3.155000000000e+01 5.391783467591e-01 
3.155000000000e+01 5.391783467591e-01 
3.155000000000e+01 5.391783467591e-01 
3.155000000000e+01 5.391783467591e-01 
3.157500000000e+01 5.367824958643e-01 
3.157500000000e+01 5.367824958643e-01 
3.157500000000e+01 5.367824958643e-01 
3.157500000000e+01 5.367824958643e-01 
3.157500000000e+01 5.367824958643e-01 
3.160000000000e+01 5.344326393247e-01 
3.160000000000e+01 5.344326393247e-01 
3.160000000000e+01 5.344326393247e-01 
3.160000000000e+01 5.344326393247e-01 
3.160000000000e+01 5.344326393247e-01 
3.162500000000e+01 5.321272743928e-01 
3.162500000000e+01 5.321272743928e-01 
3.162500000000e+01 5.321272743928e-01 
3.162500000000e+01 5.321272743928e-01 
3.162500000000e+01 5.321272743928e-01 
3.165000000000e+01 5.298649666811e-01 
3.165000000000e+01 5.298649666811e-01 
3.165000000000e+01 5.298649666811e-01 
3.165000000000e+01 5.298649666811e-01 
3.165000000000e+01 5.298649666811e-01 
3.167500000000e+01 5.276443462180e-01 
3.167500000000e+01 5.276443462180e-01 
3.167500000000e+01 5.276443462180e-01 
3.167500000000e+01 5.276443462180e-01 
3.167500000000e+01 5.276443462180e-01 
3.170000000000e+01 5.254641037767e-01 
3.170000000000e+01 5.254641037767e-01 
3.170000000000e+01 5.254641037767e-01 
3.170000000000e+01 5.254641037767e-01 
3.170000000000e+01 5.254641037767e-01 
3.172500000000e+01 5.233229874560e-01 
3.172500000000e+01 5.233229874560e-01 
3.172500000000e+01 5.233229874560e-01 
3.172500000000e+01 5.233229874560e-01 
3.172500000000e+01 5.233229874560e-01 
3.175000000000e+01 5.212197994921e-01 
3.175000000000e+01 5.212197994921e-01 
3.175000000000e+01 5.212197994921e-01 
3.175000000000e+01 5.212197994921e-01 
3.175000000000e+01 5.212197994921e-01 
3.177500000000e+01 5.191533932842e-01 
3.177500000000e+01 5.191533932842e-01 
3.177500000000e+01 5.191533932842e-01 
3.177500000000e+01 5.191533932842e-01 
3.177500000000e+01 5.191533932842e-01 
3.180000000000e+01 5.171226706164e-01 
3.180000000000e+01 5.171226706164e-01 
3.180000000000e+01 5.171226706164e-01 
3.180000000000e+01 5.171226706164e-01 
3.180000000000e+01 5.171226706164e-01 
3.182500000000e+01 5.151265790614e-01 
3.182500000000e+01 5.151265790614e-01 
3.182500000000e+01 5.151265790614e-01 
3.182500000000e+01 5.151265790614e-01 
3.182500000000e+01 5.151265790614e-01 
3.185000000000e+01 5.131641095520e-01 
3.185000000000e+01 5.131641095520e-01 
3.185000000000e+01 5.131641095520e-01 
3.185000000000e+01 5.131641095520e-01 
3.185000000000e+01 5.131641095520e-01 
3.187500000000e+01 5.112342941078e-01 
3.187500000000e+01 5.112342941078e-01 
3.187500000000e+01 5.112342941078e-01 
3.187500000000e+01 5.112342941078e-01 
3.187500000000e+01 5.112342941078e-01 
3.190000000000e+01 5.093362037054e-01 
3.190000000000e+01 5.093362037054e-01 
3.190000000000e+01 5.093362037054e-01 
3.190000000000e+01 5.093362037054e-01 
3.190000000000e+01 5.093362037054e-01 
3.192500000000e+01 5.074689462822e-01 
3.192500000000e+01 5.074689462822e-01 
3.192500000000e+01 5.074689462822e-01 
3.192500000000e+01 5.074689462822e-01 
3.192500000000e+01 5.074689462822e-01 
3.195000000000e+01 5.056316648631e-01 
3.195000000000e+01 5.056316648631e-01 
3.195000000000e+01 5.056316648631e-01 
3.195000000000e+01 5.056316648631e-01 
3.195000000000e+01 5.056316648631e-01 
3.197500000000e+01 5.038235358020e-01 
3.197500000000e+01 5.038235358020e-01 
3.197500000000e+01 5.038235358020e-01 
3.197500000000e+01 5.038235358020e-01 
3.197500000000e+01 5.038235358020e-01 
3.200000000000e+01 5.013824837384e-01 
3.200000000000e+01 5.013850788908e-01 
3.200000000000e+01 5.013863750739e-01 
3.200000000000e+01 5.013837817787e-01 
3.200000000000e+01 5.013876703272e-01 
3.288809857764e+01 4.517363977913e-01 
3.288909891992e+01 4.516907700893e-01 
3.289009926221e+01 4.516451619103e-01 
3.289109960449e+01 4.515995732402e-01 
3.289209994677e+01 4.515540040649e-01 
3.377619715528e+01 4.190650825356e-01 
3.377819783985e+01 4.190018397791e-01 
3.378019852441e+01 4.189386404319e-01 
3.378219920898e+01 4.188754844424e-01 
3.378419989355e+01 4.188123717592e-01 
3.466429573292e+01 3.949805250047e-01 
3.466729675977e+01 3.949087936635e-01 
3.467029778662e+01 3.948371225955e-01 
3.467329881347e+01 3.947655117125e-01 
3.467629984032e+01 3.946939609266e-01 
3.555239431056e+01 3.761992401374e-01 
3.555639567970e+01 3.761232257749e-01 
3.556039704883e+01 3.760472832341e-01 
3.556439841796e+01 3.759714123968e-01 
3.556839978710e+01 3.758956131449e-01 
3.644049288820e+01 3.609597850142e-01 
3.644549459962e+01 3.608816341046e-01 
3.645049631104e+01 3.608035629775e-01 
3.645549802245e+01 3.607255714907e-01 
3.646049973387e+01 3.606476595026e-01 
 TITLE = "Profiles along polylines"
 VARIABLES = "DIST" "SATURATION1" 
 ZONE T="TIME=1.797693134862e+308"
1.440492888203e+00 1.000000000000e+00 
1.445494599620e+00 1.000000000000e+00 
1.450496311037e+00 1.000000000000e+00 
1.455498022455e+00 1.000000000000e+00 
1.460499733872e+00 1.000000000000e+00 
2.392476458596e+00 1.000000000000e+00 
2.397311446299e+00 1.000000000000e+00 
2.402146434003e+00 1.000000000000e+00 
2.406981421706e+00 1.000000000000e+00 
2.411816409410e+00 1.000000000000e+00 
3.344460028988e+00 1.000000000000e+00 
3.349128292978e+00 1.000000000000e+00 
3.353796556968e+00 1.000000000000e+00 
3.358464820957e+00 1.000000000000e+00 
3.363133084947e+00 1.000000000000e+00 
4.296443599382e+00 1.000000000000e+00 
4.300945139658e+00 1.000000000000e+00 
4.305446679933e+00 1.000000000000e+00 
4.309948220209e+00 1.000000000000e+00 
4.314449760485e+00 1.000000000000e+00 
5.248427169775e+00 1.000000000000e+00 
5.252761986337e+00 1.000000000000e+00 
5.257096802899e+00 1.000000000000e+00 
5.261431619461e+00 1.000000000000e+00 
5.265766436022e+00 1.000000000000e+00 
6.200410740168e+00 1.000000000000e+00 
6.204578833016e+00 1.000000000000e+00 
6.208746925864e+00 1.000000000000e+00 
6.212915018711e+00 1.000000000000e+00 
6.217083111559e+00 1.000000000000e+00 
7.152394310560e+00 1.000000000000e+00 
7.156395679694e+00 1.000000000000e+00 
7.160397048828e+00 1.000000000000e+00 
7.164398417962e+00 1.000000000000e+00 
7.168399787096e+00 1.000000000000e+00 
8.104377880953e+00 1.000000000000e+00 
8.108212526373e+00 1.000000000000e+00 
8.112047171793e+00 1.000000000000e+00 
8.115881817213e+00 1.000000000000e+00 
8.119716462633e+00 1.000000000000e+00 
9.056361451345e+00 1.000000000000e+00 
9.060029373051e+00 1.000000000000e+00 
9.063697294757e+00 1.000000000000e+00 
9.067365216464e+00 1.000000000000e+00 
9.071033138170e+00 1.000000000000e+00 
1.000834502174e+01 1.000000000000e+00 
1.001184621973e+01 1.000000000000e+00 
1.001534741772e+01 1.000000000000e+00 
1.001884861571e+01 1.000000000000e+00 
1.002234981370e+01 1.000000000000e+00 
1.096032859213e+01 1.000000000000e+00 
1.096366306640e+01 1.000000000000e+00 
1.096699754068e+01 1.000000000000e+00 
1.097033201496e+01 1.000000000000e+00 
1.097366648924e+01 1.000000000000e+00 
1.191231216252e+01 1.000000000000e+00 
1.191547991308e+01 1.000000000000e+00 
1.191864766364e+01 1.000000000000e+00 
1.192181541421e+01 1.000000000000e+00 
1.192498316477e+01 1.000000000000e+00 
1.286429573291e+01 1.000000000000e+00 
1.286729675976e+01 1.000000000000e+00 
1.287029778661e+01 1.000000000000e+00 
1.287329881346e+01 1.000000000000e+00 
1.287629984031e+01 1.000000000000e+00 
1.381627930330e+01 1.000000000000e+00 
1.381911360643e+01 1.000000000000e+00 
1.382194790957e+01 1.000000000000e+00 
1.382478221270e+01 1.000000000000e+00 
1.382761651584e+01 1.000000000000e+00 
1.476826287369e+01 1.000000000000e+00 
1.477093045311e+01 1.000000000000e+00 
1.477359803253e+01 1.000000000000e+00 
1.477626561195e+01 1.000000000000e+00 
1.477893319138e+01 1.000000000000e+00 
1.572024644408e+01 1.000000000000e+00 
1.572274729978e+01 1.000000000000e+00 
1.572524815549e+01 1.000000000000e+00 
1.572774901120e+01 1.000000000000e+00 
1.573024986691e+01 1.000000000000e+00 
1.667223001447e+01 1.000000000000e+00 
1.667456414646e+01 1.000000000000e+00 
1.667689827846e+01 1.000000000000e+00 
1.667923241045e+01 1.000000000000e+00 
1.668156654245e+01 1.000000000000e+00 
1.762421358486e+01 1.000000000000e+00 
1.762638099315e+01 1.000000000000e+00 
1.762854840143e+01 1.000000000000e+00 
1.763071580971e+01 1.000000000000e+00 
1.763288321799e+01 1.000000000000e+00 
1.857619715526e+01 1.000000000000e+00 
1.857819783983e+01 1.000000000000e+00 
1.858019852439e+01 1.000000000000e+00 
1.858219920896e+01 1.000000000000e+00 
1.858419989353e+01 1.000000000000e+00 
1.952818072566e+01 1.000000000000e+00 
1.953001468651e+01 1.000000000000e+00 
1.953184864736e+01 1.000000000000e+00 
1.953368260821e+01 1.000000000000e+00 
1.953551656907e+01 1.000000000000e+00 
2.048016429605e+01 1.000000000000e+00 
2.048183153319e+01 1.000000000000e+00 
2.048349877033e+01 1.000000000000e+00 
2.048516600747e+01 1.000000000000e+00 
2.048683324461e+01 1.000000000000e+00 
2.143214786644e+01 1.000000000000e+00 
2.143364837987e+01 1.000000000000e+00 
2.143514889330e+01 1.000000000000e+00 
2.143664940672e+01 1.000000000000e+00 
2.143814992015e+01 1.000000000000e+00 
2.238413143684e+01 1.000000000000e+00 
2.238546522655e+01 1.000000000000e+00 
2.238679901626e+01 1.000000000000e+00 
2.238813280597e+01 1.000000000000e+00 
2.238946659569e+01 1.000000000000e+00 
2.333611500724e+01 1.000000000000e+00 
2.333728207323e+01 1.000000000000e+00 
2.333844913923e+01 1.000000000000e+00 
2.333961620523e+01 1.000000000000e+00 
2.334078327122e+01 1.000000000000e+00 
2.428809857763e+01 1.000000000000e+00 
2.428909891991e+01 1.000000000000e+00 
2.429009926220e+01 1.000000000000e+00 
2.429109960448e+01 1.000000000000e+00 
2.429209994676e+01 1.000000000000e+00 
2.524008214802e+01 1.000000000000e+00 
2.524091576659e+01 1.000000000000e+00 
2.524174938516e+01 1.000000000000e+00 
2.524258300373e+01 1.000000000000e+00 
2.524341662230e+01 1.000000000000e+00 
2.619206571842e+01 1.000000000000e+00 
2.619273261328e+01 1.000000000000e+00 
2.619339950813e+01 1.000000000000e+00 
2.619406640299e+01 1.000000000000e+00 
2.619473329784e+01 1.000000000000e+00 
2.714404928881e+01 1.000000000000e+00 
2.714454945996e+01 1.000000000000e+00 
2.714504963110e+01 1.000000000000e+00 
2.714554980224e+01 1.000000000000e+00 
2.714604997338e+01 1.000000000000e+00 
2.809603285921e+01 1.000000000000e+00 
2.809636630664e+01 1.000000000000e+00 
2.809669975407e+01 1.000000000000e+00 
2.809703320149e+01 1.000000000000e+00 
2.809736664892e+01 1.000000000000e+00 
2.904801642960e+01 1.000000000000e+00 
2.904818315332e+01 1.000000000000e+00 
2.904834987703e+01 1.000000000000e+00 
2.904851660075e+01 1.000000000000e+00 
2.904868332446e+01 1.000000000000e+00 
3.000000000000e+01 1.000000000000e+00 
3.000000000000e+01 1.000000000000e+00 
3.000000000000e+01 1.000000000000e+00 
3.000000000000e+01 1.000000000000e+00 
3.000000000000e+01 1.000000000000e+00 
3.002500000000e+01 1.000000000000e+00 
3.002500000000e+01 1.000000000000e+00 
3.002500000000e+01 1.000000000000e+00 
3.002500000000e+01 1.000000000000e+00 
3.002500000000e+01 1.000000000000e+00 
3.005000000000e+01 1.000000000000e+00 
3.005000000000e+01 1.000000000000e+00 
3.005000000000e+01 1.000000000000e+00 
3.005000000000e+01 1.000000000000e+00 
3.005000000000e+01 1.000000000000e+00 
3.007500000000e+01 1.000000000000e+00 
3.007500000000e+01 1.000000000000e+00 
3.007500000000e+01 1.000000000000e+00 
3.007500000000e+01 1.000000000000e+00 
3.007500000000e+01 1.000000000000e+00 
3.010000000000e+01 1.000000000000e+00 
3.010000000000e+01 1.000000000000e+00 
3.010000000000e+01 1.000000000000e+00 
3.010000000000e+01 1.000000000000e+00 
3.010000000000e+01 1.000000000000e+00 
3.012500000000e+01 1.000000000000e+00 
3.012500000000e+01 1.000000000000e+00 
3.012500000000e+01 1.000000000000e+00 
3.012500000000e+01 1.000000000000e+00 
3.012500000000e+01 1.000000000000e+00 
3.015000000000e+01 1.000000000000e+00 
3.015000000000e+01 1.000000000000e+00 
3.015000000000e+01 1.000000000000e+00 