 TITLE = "Profiles along polylines"
 VARIABLES = "DIST" "SATURATION1" 
 ZONE T="TIME=0.000000000000e+00"
1.690578459072e+00 1.000000000000e+00 
1.695580170490e+00 1.000000000000e+00 
1.700581881907e+00 1.000000000000e+00 
1.705583593324e+00 1.000000000000e+00 
1.710585304742e+00 1.000000000000e+00 
2.634225843770e+00 1.000000000000e+00 
2.639060831473e+00 1.000000000000e+00 
2.643895819176e+00 1.000000000000e+00 
2.648730806880e+00 1.000000000000e+00 
2.653565794583e+00 1.000000000000e+00 
3.577873228467e+00 1.000000000000e+00 
3.582541492456e+00 1.000000000000e+00 
3.587209756446e+00 1.000000000000e+00 
3.591878020435e+00 1.000000000000e+00 
3.596546284425e+00 1.000000000000e+00 
4.521520613165e+00 1.000000000000e+00 
4.526022153440e+00 1.000000000000e+00 
4.530523693716e+00 1.000000000000e+00 
4.535025233992e+00 1.000000000000e+00 
4.539526774267e+00 1.000000000000e+00 
5.465167997862e+00 1.000000000000e+00 
5.469502814424e+00 1.000000000000e+00 
5.473837630986e+00 1.000000000000e+00 
5.478172447548e+00 1.000000000000e+00 
5.482507264109e+00 1.000000000000e+00 
6.408815382559e+00 1.000000000000e+00 
6.412983475407e+00 1.000000000000e+00 
6.417151568255e+00 1.000000000000e+00 
6.421319661103e+00 1.000000000000e+00 
6.425487753950e+00 1.000000000000e+00 
7.352462767256e+00 1.000000000000e+00 
7.356464136390e+00 1.000000000000e+00 
7.360465505524e+00 1.000000000000e+00 
7.364466874658e+00 1.000000000000e+00 
7.368468243792e+00 1.000000000000e+00 
8.296110151953e+00 1.000000000000e+00 
8.299944797373e+00 1.000000000000e+00 
8.303779442793e+00 1.000000000000e+00 
8.307614088213e+00 1.000000000000e+00 
8.311448733633e+00 1.000000000000e+00 
9.239757536650e+00 1.000000000000e+00 
9.243425458356e+00 1.000000000000e+00 
9.247093380062e+00 1.000000000000e+00 
9.250761301768e+00 1.000000000000e+00 
9.254429223474e+00 1.000000000000e+00 
1.018340492134e+01 1.000000000000e+00 
1.018690611934e+01 1.000000000000e+00 
1.019040731733e+01 1.000000000000e+00 
1.019390851532e+01 1.000000000000e+00 
1.019740971331e+01 1.000000000000e+00 
1.112705230604e+01 1.000000000000e+00 
1.113038678032e+01 1.000000000000e+00 
1.113372125460e+01 1.000000000000e+00 
1.113705572887e+01 1.000000000000e+00 
1.114039020315e+01 1.000000000000e+00 
1.207069969073e+01 1.000000000000e+00 
1.207386744130e+01 1.000000000000e+00 
1.207703519186e+01 1.000000000000e+00 
1.208020294243e+01 1.000000000000e+00 
1.208337069299e+01 1.000000000000e+00 
1.301434707543e+01 1.000000000000e+00 
1.301734810228e+01 1.000000000000e+00 
1.302034912913e+01 1.000000000000e+00 
1.302335015598e+01 1.000000000000e+00 
1.302635118283e+01 1.000000000000e+00 
1.395799446012e+01 1.000000000000e+00 
1.396082876326e+01 1.000000000000e+00 
1.396366306639e+01 1.000000000000e+00 
1.396649736953e+01 1.000000000000e+00 
1.396933167267e+01 1.000000000000e+00 
1.490164184482e+01 1.000000000000e+00 
1.490430942424e+01 1.000000000000e+00 
1.490697700366e+01 1.000000000000e+00 
1.490964458308e+01 1.000000000000e+00 
1.491231216251e+01 1.000000000000e+00 
1.584528922951e+01 1.000000000000e+00 
1.584779008522e+01 1.000000000000e+00 
1.585029094093e+01 1.000000000000e+00 
1.585279179664e+01 1.000000000000e+00 
1.585529265235e+01 1.000000000000e+00 
1.678893661421e+01 1.000000000000e+00 
1.679127074620e+01 1.000000000000e+00 
1.679360487820e+01 1.000000000000e+00 
1.679593901019e+01 1.000000000000e+00 
1.679827314219e+01 1.000000000000e+00 
1.773258399891e+01 1.000000000000e+00 
1.773475140719e+01 1.000000000000e+00 
1.773691881547e+01 1.000000000000e+00 
1.773908622375e+01 1.000000000000e+00 
1.774125363203e+01 1.000000000000e+00 
1.867623138361e+01 1.000000000000e+00 
1.867823206818e+01 1.000000000000e+00 
1.868023275274e+01 1.000000000000e+00 
1.868223343731e+01 1.000000000000e+00 
1.868423412188e+01 1.000000000000e+00 
1.961987876831e+01 1.000000000000e+00 
1.962171272916e+01 1.000000000000e+00 
1.962354669001e+01 1.000000000000e+00 
1.962538065087e+01 1.000000000000e+00 
1.962721461172e+01 1.000000000000e+00 
2.056352615301e+01 1.000000000000e+00 
2.056519339015e+01 1.000000000000e+00 
2.056686062729e+01 1.000000000000e+00 
2.056852786442e+01 1.000000000000e+00 
2.057019510156e+01 1.000000000000e+00 
2.150717353771e+01 1.000000000000e+00 
2.150867405113e+01 1.000000000000e+00 
2.151017456456e+01 1.000000000000e+00 
2.151167507798e+01 1.000000000000e+00 
2.151317559141e+01 1.000000000000e+00 
2.245082092241e+01 1.000000000000e+00 
2.245215471212e+01 1.000000000000e+00 
2.245348850183e+01 1.000000000000e+00 
2.245482229154e+01 1.000000000000e+00 
2.245615608125e+01 1.000000000000e+00 
2.339446830710e+01 1.000000000000e+00 
2.339563537310e+01 1.000000000000e+00 
2.339680243910e+01 1.000000000000e+00 
2.339796950510e+01 1.000000000000e+00 
2.339913657109e+01 1.000000000000e+00 
2.433811569180e+01 1.000000000000e+00 
2.433911603409e+01 1.000000000000e+00 
2.434011637637e+01 1.000000000000e+00 
2.434111671865e+01 1.000000000000e+00 
2.434211706094e+01 1.000000000000e+00 
2.528176307650e+01 1.000000000000e+00 
2.528259669507e+01 1.000000000000e+00 
2.528343031364e+01 1.000000000000e+00 
2.528426393221e+01 1.000000000000e+00 
2.528509755078e+01 1.000000000000e+00 
2.622541046120e+01 1.000000000000e+00 
2.622607735606e+01 1.000000000000e+00 
2.622674425091e+01 1.000000000000e+00 
2.622741114577e+01 1.000000000000e+00 
2.622807804063e+01 1.000000000000e+00 
2.716905784590e+01 1.000000000000e+00 
2.716955801704e+01 1.000000000000e+00 
2.717005818819e+01 1.000000000000e+00 
2.717055835933e+01 1.000000000000e+00 
2.717105853047e+01 1.000000000000e+00 
2.811270523060e+01 1.000000000000e+00 
2.811303867803e+01 1.000000000000e+00 
2.811337212546e+01 1.000000000000e+00 
2.811370557288e+01 1.000000000000e+00 
2.811403902031e+01 1.000000000000e+00 
2.905635261530e+01 1.000000000000e+00 
2.905651933901e+01 1.000000000000e+00 
2.905668606273e+01 1.000000000000e+00 
2.905685278644e+01 1.000000000000e+00 
2.905701951016e+01 1.000000000000e+00 
3.000000000000e+01 1.000000000000e+00 
3.000000000000e+01 1.000000000000e+00 
3.000000000000e+01 1.000000000000e+00 
3.000000000000e+01 1.000000000000e+00 
3.000000000000e+01 1.000000000000e+00 
3.002500000000e+01 9.876207709446e-01 
3.002500000000e+01 9.876207709446e-01 
3.002500000000e+01 9.876207709446e-01 
3.002500000000e+01 9.876207709446e-01 
3.002500000000e+01 9.876207709446e-01 
3.005000000000e+01 9.697756439369e-01 
3.005000000000e+01 9.697756439369e-01 
3.005000000000e+01 9.697756439369e-01 
3.005000000000e+01 9.697756439369e-01 
3.005000000000e+01 9.697756439369e-01 
3.007500000000e+01 9.507134089444e-01 
3.007500000000e+01 9.507134089444e-01 
3.007500000000e+01 9.507134089444e-01 
3.007500000000e+01 9.507134089444e-01 
3.007500000000e+01 9.507134089444e-01 
3.010000000000e+01 9.315621650298e-01 
3.010000000000e+01 9.315621650298e-01 
3.010000000000e+01 9.315621650298e-01 
3.010000000000e+01 9.315621650298e-01 
3.010000000000e+01 9.315621650298e-01 
3.012500000000e+01 9.128758324042e-01 
3.012500000000e+01 9.128758324042e-01 
3.012500000000e+01 9.128758324042e-01 
3.012500000000e+01 9.128758324042e-01 
3.012500000000e+01 9.128758324042e-01 
3.015000000000e+01 8.949248043380e-01 
3.015000000000e+01 8.949248043380e-01 
3.015000000000e+01 8.949248043380e-01 
3.015000000000e+01 8.949248043380e-01 
3.015000000000e+01 8.949248043380e-01 
3.017500000000e+01 8.778290027968e-01 
3.017500000000e+01 8.778290027968e-01 
3.017500000000e+01 8.778290027968e-01 
3.017500000000e+01 8.778290027968e-01 
3.017500000000e+01 8.778290027968e-01 
3.020000000000e+01 8.616255702900e-01 
3.020000000000e+01 8.616255702900e-01 
3.020000000000e+01 8.616255702900e-01 
3.020000000000e+01 8.616255702900e-01 
3.020000000000e+01 8.616255702900e-01 
3.022500000000e+01 8.463059583920e-01 
3.022500000000e+01 8.463059583920e-01 
3.022500000000e+01 8.463059583920e-01 
3.022500000000e+01 8.463059583920e-01 
3.022500000000e+01 8.463059583920e-01 
3.025000000000e+01 8.318370344398e-01 
3.025000000000e+01 8.318370344398e-01 
3.025000000000e+01 8.318370344398e-01 
3.025000000000e+01 8.318370344398e-01 
3.025000000000e+01 8.318370344398e-01 
3.027500000000e+01 8.181733156316e-01 
3.027500000000e+01 8.181733156316e-01 
3.027500000000e+01 8.181733156316e-01 
3.027500000000e+01 8.181733156316e-01 
3.027500000000e+01 8.181733156316e-01 
3.030000000000e+01 8.052640970350e-01 
3.030000000000e+01 8.052640970350e-01 
3.030000000000e+01 8.052640970350e-01 
3.030000000000e+01 8.052640970350e-01 
3.030000000000e+01 8.052640970350e-01 
3.032500000000e+01 7.930575753856e-01 
3.032500000000e+01 7.930575753856e-01 
3.032500000000e+01 7.930575753856e-01 
3.032500000000e+01 7.930575753856e-01 
3.032500000000e+01 7.930575753856e-01 
3.035000000000e+01 7.815031815402e-01 
3.035000000000e+01 7.815031815402e-01 
3.035000000000e+01 7.815031815402e-01 
3.035000000000e+01 7.815031815402e-01 
3.035000000000e+01 7.815031815402e-01 
3.037500000000e+01 7.705528376764e-01 
3.037500000000e+01 7.705528376764e-01 
3.037500000000e+01 7.705528376764e-01 
3.037500000000e+01 7.705528376764e-01 
3.037500000000e+01 7.705528376764e-01 
3.040000000000e+01 7.601615689674e-01 
3.040000000000e+01 7.601615689674e-01 
3.040000000000e+01 7.601615689674e-01 
3.040000000000e+01 7.601615689674e-01 
3.040000000000e+01 7.601615689674e-01 
3.042500000000e+01 7.502877306002e-01 
3.042500000000e+01 7.502877306002e-01 
3.042500000000e+01 7.502877306002e-01 
3.042500000000e+01 7.502877306002e-01 
3.042500000000e+01 7.502877306002e-01 
3.045000000000e+01 7.408930096824e-01 
3.045000000000e+01 7.408930096824e-01 
3.045000000000e+01 7.408930096824e-01 
3.045000000000e+01 7.408930096824e-01 
3.045000000000e+01 7.408930096824e-01 
3.047500000000e+01 7.319422999608e-01 
3.047500000000e+01 7.319422999608e-01 
3.047500000000e+01 7.319422999608e-01 
3.047500000000e+01 7.319422999608e-01 
3.047500000000e+01 7.319422999608e-01 
3.050000000000e+01 7.234035093991e-01 
3.050000000000e+01 7.234035093991e-01 
3.050000000000e+01 7.234035093991e-01 
3.050000000000e+01 7.234035093991e-01 
3.050000000000e+01 7.234035093991e-01 
3.052500000000e+01 7.152473371957e-01 
3.052500000000e+01 7.152473371957e-01 
3.052500000000e+01 7.152473371957e-01 
3.052500000000e+01 7.152473371957e-01 
3.052500000000e+01 7.152473371957e-01 
3.055000000000e+01 7.074470422112e-01 
3.055000000000e+01 7.074470422112e-01 
3.055000000000e+01 7.074470422112e-01 
3.055000000000e+01 7.074470422112e-01 
3.055000000000e+01 7.074470422112e-01 
3.057500000000e+01 6.999782156504e-01 
3.057500000000e+01 6.999782156504e-01 
3.057500000000e+01 6.999782156504e-01 
3.057500000000e+01 6.999782156504e-01 
3.057500000000e+01 6.999782156504e-01 
3.060000000000e+01 6.928185651596e-01 
3.060000000000e+01 6.928185651596e-01 
3.060000000000e+01 6.928185651596e-01 
3.060000000000e+01 6.928185651596e-01 
3.060000000000e+01 6.928185651596e-01 
3.062500000000e+01 6.859477139679e-01 
3.062500000000e+01 6.859477139679e-01 
3.062500000000e+01 6.859477139679e-01 
3.062500000000e+01 6.859477139679e-01 
3.062500000000e+01 6.859477139679e-01 
3.065000000000e+01 6.793470165436e-01 
3.065000000000e+01 6.793470165436e-01 
3.065000000000e+01 6.793470165436e-01 
3.065000000000e+01 6.793470165436e-01 
3.065000000000e+01 6.793470165436e-01 
3.067500000000e+01 6.729993909360e-01 
3.067500000000e+01 6.729993909360e-01 
3.067500000000e+01 6.729993909360e-01 
3.067500000000e+01 6.729993909360e-01 
3.067500000000e+01 6.729993909360e-01 
3.070000000000e+01 6.668891672206e-01 
3.070000000000e+01 6.668891672206e-01 
3.070000000000e+01 6.668891672206e-01 
3.070000000000e+01 6.668891672206e-01 
3.070000000000e+01 6.668891672206e-01 
3.072500000000e+01 6.610019510587e-01 
3.072500000000e+01 6.610019510587e-01 
3.072500000000e+01 6.610019510587e-01 
3.072500000000e+01 6.610019510587e-01 
3.072500000000e+01 6.610019510587e-01 
3.075000000000e+01 6.553245011865e-01 
3.075000000000e+01 6.553245011865e-01 
3.075000000000e+01 6.553245011865e-01 
3.075000000000e+01 6.553245011865e-01 
3.075000000000e+01 6.553245011865e-01 
3.077500000000e+01 6.498446195878e-01 
3.077500000000e+01 6.498446195878e-01 
3.077500000000e+01 6.498446195878e-01 
3.077500000000e+01 6.498446195878e-01 
3.077500000000e+01 6.498446195878e-01 
3.080000000000e+01 6.445510531188e-01 
3.080000000000e+01 6.445510531188e-01 
3.080000000000e+01 6.445510531188e-01 
3.080000000000e+01 6.445510531188e-01 
3.080000000000e+01 6.445510531188e-01 
3.082500000000e+01 6.394334054150e-01 
3.082500000000e+01 6.394334054150e-01 
3.082500000000e+01 6.394334054150e-01 
3.082500000000e+01 6.394334054150e-01 
3.082500000000e+01 6.394334054150e-01 
3.085000000000e+01 6.344820579917e-01 
3.085000000000e+01 6.344820579917e-01 
3.085000000000e+01 6.344820579917e-01 
3.085000000000e+01 6.344820579917e-01 
3.085000000000e+01 6.344820579917e-01 
3.087500000000e+01 6.296880995462e-01 
3.087500000000e+01 6.296880995462e-01 
3.087500000000e+01 6.296880995462e-01 
3.087500000000e+01 6.296880995462e-01 
3.087500000000e+01 6.296880995462e-01 
3.090000000000e+01 6.250432625624e-01 
3.090000000000e+01 6.250432625624e-01 
3.090000000000e+01 6.250432625624e-01 
3.090000000000e+01 6.250432625624e-01 
3.090000000000e+01 6.250432625624e-01 
3.092500000000e+01 6.205398664126e-01 
3.092500000000e+01 6.205398664126e-01 
3.092500000000e+01 6.205398664126e-01 
3.092500000000e+01 6.205398664126e-01 
3.092500000000e+01 6.205398664126e-01 
3.095000000000e+01 6.161707662369e-01 
3.095000000000e+01 6.161707662369e-01 
3.095000000000e+01 6.161707662369e-01 
3.095000000000e+01 6.161707662369e-01 
3.095000000000e+01 6.161707662369e-01 
3.097500000000e+01 6.119293069613e-01 
3.097500000000e+01 6.119293069613e-01 
3.097500000000e+01 6.119293069613e-01 
3.097500000000e+01 6.119293069613e-01 
3.097500000000e+01 6.119293069613e-01 
3.100000000000e+01 6.078092818871e-01 
3.100000000000e+01 6.078092818871e-01 
3.100000000000e+01 6.078092818871e-01 
3.100000000000e+01 6.078092818871e-01 
3.100000000000e+01 6.078092818871e-01 
3.102500000000e+01 6.038048953494e-01 
3.102500000000e+01 6.038048953494e-01 
3.102500000000e+01 6.038048953494e-01 
3.102500000000e+01 6.038048953494e-01 
3.102500000000e+01 6.038048953494e-01 
3.105000000000e+01 5.999107290013e-01 
3.105000000000e+01 5.999107290013e-01 
3.105000000000e+01 5.999107290013e-01 
3.105000000000e+01 5.999107290013e-01 
3.105000000000e+01 5.999107290013e-01 
3.107500000000e+01 5.961217113309e-01 
3.107500000000e+01 5.961217113309e-01 
3.107500000000e+01 5.961217113309e-01 
3.107500000000e+01 5.961217113309e-01 
3.107500000000e+01 5.961217113309e-01 
3.110000000000e+01 5.924330900627e-01 
3.110000000000e+01 5.924330900627e-01 
3.110000000000e+01 5.924330900627e-01 
3.110000000000e+01 5.924330900627e-01 
3.110000000000e+01 5.924330900627e-01 
3.112500000000e+01 5.888404071392e-01 
3.112500000000e+01 5.888404071392e-01 
3.112500000000e+01 5.888404071392e-01 
3.112500000000e+01 5.888404071392e-01 
3.112500000000e+01 5.888404071392e-01 
3.115000000000e+01 5.853394760078e-01 
3.115000000000e+01 5.853394760078e-01 
3.115000000000e+01 5.853394760078e-01 
3.115000000000e+01 5.853394760078e-01 
3.115000000000e+01 5.853394760078e-01 
3.117500000000e+01 5.819263609758e-01 
3.117500000000e+01 5.819263609758e-01 
3.117500000000e+01 5.819263609758e-01 
3.117500000000e+01 5.819263609758e-01 
3.117500000000e+01 5.819263609758e-01 
3.120000000000e+01 5.785973584173e-01 
3.120000000000e+01 5.785973584173e-01 
3.120000000000e+01 5.785973584173e-01 
3.120000000000e+01 5.785973584173e-01 
3.120000000000e+01 5.785973584173e-01 
3.122500000000e+01 5.753489796460e-01 
3.122500000000e+01 5.753489796460e-01 
3.122500000000e+01 5.753489796460e-01 
3.122500000000e+01 5.753489796460e-01 
3.122500000000e+01 5.753489796460e-01 
3.125000000000e+01 5.721779352840e-01 
3.125000000000e+01 5.721779352840e-01 
3.125000000000e+01 5.721779352840e-01 
3.125000000000e+01 5.721779352840e-01 
3.125000000000e+01 5.721779352840e-01 
3.127500000000e+01 5.690811209785e-01 
3.127500000000e+01 5.690811209785e-01 
3.127500000000e+01 5.690811209785e-01 
3.127500000000e+01 5.690811209785e-01 
3.127500000000e+01 5.690811209785e-01 
3.130000000000e+01 5.660556043336e-01 
3.130000000000e+01 5.660556043336e-01 
3.130000000000e+01 5.660556043336e-01 
3.130000000000e+01 5.660556043336e-01 
3.130000000000e+01 5.660556043336e-01 
3.132500000000e+01 5.630986129391e-01 
3.132500000000e+01 5.630986129391e-01 
3.132500000000e+01 5.630986129391e-01 
3.132500000000e+01 5.630986129391e-01 
3.132500000000e+01 5.630986129391e-01 
3.135000000000e+01 5.602075233904e-01 
3.135000000000e+01 5.602075233904e-01 
3.135000000000e+01 5.602075233904e-01 
3.135000000000e+01 5.602075233904e-01 
3.135000000000e+01 5.602075233904e-01 
3.137500000000e+01 5.573798512060e-01 
3.137500000000e+01 5.573798512060e-01 
3.137500000000e+01 5.573798512060e-01 
3.137500000000e+01 5.573798512060e-01 
3.137500000000e+01 5.573798512060e-01 
3.140000000000e+01 5.546132415581e-01 
3.140000000000e+01 5.546132415581e-01 
3.140000000000e+01 5.546132415581e-01 
3.140000000000e+01 5.546132415581e-01 
3.140000000000e+01 5.546132415581e-01 
3.142500000000e+01 5.519054607414e-01 
3.142500000000e+01 5.519054607414e-01 
3.142500000000e+01 5.519054607414e-01 
3.142500000000e+01 5.519054607414e-01 
3.142500000000e+01 5.519054607414e-01 
3.145000000000e+01 5.492543883110e-01 
3.145000000000e+01 5.492543883110e-01 
3.145000000000e+01 5.492543883110e-01 
3.145000000000e+01 5.492543883110e-01 
3.145000000000e+01 5.492543883110e-01 
3.147500000000e+01 5.466580098318e-01 
3.147500000000e+01 5.466580098318e-01 
3.147500000000e+01 5.466580098318e-01 
3.147500000000e+01 5.466580098318e-01 
3.147500000000e+01 5.466580098318e-01 
3.150000000000e+01 5.441144101810e-01 
3.150000000000e+01 5.441144101810e-01 
3.150000000000e+01 5.441144101810e-01 
3.150000000000e+01 5.441144101810e-01 
3.150000000000e+01 5.441144101810e-01 
3.152500000000e+01 5.416217673588e-01 
3.152500000000e+01 5.416217673588e-01 
3.152500000000e+01 5.416217673588e-01 
3.152500000000e+01 5.416217673588e-01 
3.152500000000e+01 5.416217673588e-01 
3.155000000000e+01 5.391783467591e-01 
3.155000000000e+01 5.391783467591e-01 
3.155000000000e+01 5.391783467591e-01 
3.155000000000e+01 5.391783467591e-01 
3.155000000000e+01 5.391783467591e-01 
3.157500000000e+01 5.367824958643e-01 
3.157500000000e+01 5.367824958643e-01 
3.157500000000e+01 5.367824958643e-01 
3.157500000000e+01 5.367824958643e-01 
3.157500000000e+01 5.367824958643e-01 
3.160000000000e+01 5.344326393247e-01 
3.160000000000e+01 5.344326393247e-01 
3.160000000000e+01 5.344326393247e-01 
3.160000000000e+01 5.344326393247e-01 
3.160000000000e+01 5.344326393247e-01 
3.162500000000e+01 5.321272743928e-01 
3.162500000000e+01 5.321272743928e-01 
3.162500000000e+01 5.321272743928e-01 
3.162500000000e+01 5.321272743928e-01 
3.162500000000e+01 5.321272743928e-01 
3.165000000000e+01 5.298649666811e-01 
3.165000000000e+01 5.298649666811e-01 
3.165000000000e+01 5.298649666811e-01 
3.165000000000e+01 5.298649666811e-01 
3.165000000000e+01 5.298649666811e-01 
3.167500000000e+01 5.276443462180e-01 
3.167500000000e+01 5.276443462180e-01 
3.167500000000e+01 5.276443462180e-01 
3.167500000000e+01 5.276443462180e-01 
3.167500000000e+01 5.276443462180e-01 
3.170000000000e+01 5.254641037767e-01 
3.170000000000e+01 5.254641037767e-01 
3.170000000000e+01 5.254641037767e-01 
3.170000000000e+01 5.254641037767e-01 
3.170000000000e+01 5.254641037767e-01 
3.172500000000e+01 5.233229874560e-01 
3.172500000000e+01 5.233229874560e-01 
3.172500000000e+01 5.233229874560e-01 
3.172500000000e+01 5.233229874560e-01 
3.172500000000e+01 5.233229874560e-01 
3.175000000000e+01 5.212197994921e-01 
3.175000000000e+01 5.212197994921e-01 
3.175000000000e+01 5.212197994921e-01 
3.175000000000e+01 5.212197994921e-01 
3.175000000000e+01 5.212197994921e-01 
3.177500000000e+01 5.191533932842e-01 
3.177500000000e+01 5.191533932842e-01 
3.177500000000e+01 5.191533932842e-01 
3.177500000000e+01 5.191533932842e-01 
3.177500000000e+01 5.191533932842e-01 
3.180000000000e+01 5.171226706164e-01 
3.180000000000e+01 5.171226706164e-01 
3.180000000000e+01 5.171226706164e-01 
3.180000000000e+01 5.171226706164e-01 
3.180000000000e+01 5.171226706164e-01 
3.182500000000e+01 5.151265790614e-01 
3.182500000000e+01 5.151265790614e-01 
3.182500000000e+01 5.151265790614e-01 
3.182500000000e+01 5.151265790614e-01 
3.182500000000e+01 5.151265790614e-01 
3.185000000000e+01 5.131641095520e-01 
3.185000000000e+01 5.131641095520e-01 
3.185000000000e+01 5.131641095520e-01 
3.185000000000e+01 5.131641095520e-01 
3.185000000000e+01 5.131641095520e-01 
3.187500000000e+01 5.112342941078e-01 
3.187500000000e+01 5.112342941078e-01 
3.187500000000e+01 5.112342941078e-01 
3.187500000000e+01 5.112342941078e-01 
3.187500000000e+01 5.112342941078e-01 
3.190000000000e+01 5.093362037054e-01 
3.190000000000e+01 5.093362037054e-01 
3.190000000000e+01 5.093362037054e-01 
3.190000000000e+01 5.093362037054e-01 
3.190000000000e+01 5.093362037054e-01 
3.192500000000e+01 5.074689462822e-01 
3.192500000000e+01 5.074689462822e-01 
3.192500000000e+01 5.074689462822e-01 
3.192500000000e+01 5.074689462822e-01 
3.192500000000e+01 5.074689462822e-01 
3.195000000000e+01 5.056316648631e-01 
3.195000000000e+01 5.056316648631e-01 
3.195000000000e+01 5.056316648631e-01 
3.195000000000e+01 5.056316648631e-01 
3.195000000000e+01 5.056316648631e-01 
3.197500000000e+01 5.038235358020e-01 
3.197500000000e+01 5.038235358020e-01 
3.197500000000e+01 5.038235358020e-01 
3.197500000000e+01 5.038235358020e-01 
3.197500000000e+01 5.038235358020e-01 
3.200000000000e+01 5.013164163323e-01 
3.200000000000e+01 5.013191022701e-01 
3.200000000000e+01 5.013204439064e-01 
3.200000000000e+01 5.013177597451e-01 
3.200000000000e+01 5.013217846533e-01 
3.293811569181e+01 4.494786551453e-01 
3.293911603410e+01 4.494339865884e-01 
3.294011637638e+01 4.493893368661e-01 
3.294111671866e+01 4.493447059651e-01 
3.294211706095e+01 4.493000938720e-01 
3.387623138363e+01 4.159551307619e-01 
3.387823206820e+01 4.158939970070e-01 
3.388023275276e+01 4.158329041876e-01 
3.388223343733e+01 4.157718522562e-01 
3.388423412190e+01 4.157108411657e-01 
3.481434707544e+01 3.914661069225e-01 
3.481734810229e+01 3.913972847932e-01 
3.482034912914e+01 3.913285187471e-01 
3.482335015599e+01 3.912598087044e-01 
3.482635118285e+01 3.911911545860e-01 
3.575246276726e+01 3.724842475264e-01 
3.575646413639e+01 3.724116846090e-01 
3.576046550553e+01 3.723391879234e-01 
3.576446687466e+01 3.722667573641e-01 
3.576846824379e+01 3.721943928261e-01 
3.669057845907e+01 3.571472690739e-01 
3.669558017049e+01 3.570729400553e-01 
3.670058188191e+01 3.569986841351e-01 
3.670558359332e+01 3.569245011879e-01 
3.671058530474e+01 3.568503910885e-01 
 TITLE = "Profiles along polylines"
 VARIABLES = "DIST" "SATURATION1" 
 ZONE T="TIME=1.797693134862e+308"
1.690578459072e+00 1.000000000000e+00 
1.695580170490e+00 1.000000000000e+00 
1.700581881907e+00 1.000000000000e+00 
1.705583593324e+00 1.000000000000e+00 
1.710585304742e+00 1.000000000000e+00 
2.634225843770e+00 1.000000000000e+00 
2.639060831473e+00 1.000000000000e+00 
2.643895819176e+00 1.000000000000e+00 
2.648730806880e+00 1.000000000000e+00 
2.653565794583e+00 1.000000000000e+00 
3.577873228467e+00 1.000000000000e+00 
3.582541492456e+00 1.000000000000e+00 
3.587209756446e+00 1.000000000000e+00 
3.591878020435e+00 1.000000000000e+00 
3.596546284425e+00 1.000000000000e+00 
4.521520613165e+00 1.000000000000e+00 
4.526022153440e+00 1.000000000000e+00 
4.530523693716e+00 1.000000000000e+00 
4.535025233992e+00 1.000000000000e+00 
4.539526774267e+00 1.000000000000e+00 
5.465167997862e+00 1.000000000000e+00 
5.469502814424e+00 1.000000000000e+00 
5.473837630986e+00 1.000000000000e+00 
5.478172447548e+00 1.000000000000e+00 
5.482507264109e+00 1.000000000000e+00 
6.408815382559e+00 1.000000000000e+00 
6.412983475407e+00 1.000000000000e+00 
6.417151568255e+00 1.000000000000e+00 
6.421319661103e+00 1.000000000000e+00 
6.425487753950e+00 1.000000000000e+00 
7.352462767256e+00 1.000000000000e+00 
7.356464136390e+00 1.000000000000e+00 
7.360465505524e+00 1.000000000000e+00 
7.364466874658e+00 1.000000000000e+00 
7.368468243792e+00 1.000000000000e+00 
8.296110151953e+00 1.000000000000e+00 
8.299944797373e+00 1.000000000000e+00 
8.303779442793e+00 1.000000000000e+00 
8.307614088213e+00 1.000000000000e+00 
8.311448733633e+00 1.000000000000e+00 
9.239757536650e+00 1.000000000000e+00 
9.243425458356e+00 1.000000000000e+00 
9.247093380062e+00 1.000000000000e+00 
9.250761301768e+00 1.000000000000e+00 
9.254429223474e+00 1.000000000000e+00 
1.018340492134e+01 1.000000000000e+00 
1.018690611934e+01 1.000000000000e+00 
1.019040731733e+01 1.000000000000e+00 
1.019390851532e+01 1.000000000000e+00 
1.019740971331e+01 1.000000000000e+00 
1.112705230604e+01 1.000000000000e+00 
1.113038678032e+01 1.000000000000e+00 
1.113372125460e+01 1.000000000000e+00 
1.113705572887e+01 1.000000000000e+00 
1.114039020315e+01 1.000000000000e+00 
1.207069969073e+01 1.000000000000e+00 
1.207386744130e+01 1.000000000000e+00 
1.207703519186e+01 1.000000000000e+00 
1.208020294243e+01 1.000000000000e+00 
1.208337069299e+01 1.000000000000e+00 
1.301434707543e+01 1.000000000000e+00 
1.301734810228e+01 1.000000000000e+00 
1.302034912913e+01 1.000000000000e+00 
1.302335015598e+01 1.000000000000e+00 
1.302635118283e+01 1.000000000000e+00 
1.395799446012e+01 1.000000000000e+00 
1.396082876326e+01 1.000000000000e+00 
1.396366306639e+01 1.000000000000e+00 
1.396649736953e+01 1.000000000000e+00 
1.396933167267e+01 1.000000000000e+00 
1.490164184482e+01 1.000000000000e+00 
1.490430942424e+01 1.000000000000e+00 
1.490697700366e+01 1.000000000000e+00 
1.490964458308e+01 1.000000000000e+00 
1.491231216251e+01 1.000000000000e+00 
1.584528922951e+01 1.000000000000e+00 
1.584779008522e+01 1.000000000000e+00 
1.585029094093e+01 1.000000000000e+00 
1.585279179664e+01 1.000000000000e+00 
1.585529265235e+01 1.000000000000e+00 
1.678893661421e+01 1.000000000000e+00 
1.679127074620e+01 1.000000000000e+00 
1.679360487820e+01 1.000000000000e+00 
1.679593901019e+01 1.000000000000e+00 
1.679827314219e+01 1.000000000000e+00 
1.773258399891e+01 1.000000000000e+00 
1.773475140719e+01 1.000000000000e+00 
1.773691881547e+01 1.000000000000e+00 
1.773908622375e+01 1.000000000000e+00 
1.774125363203e+01 1.000000000000e+00 
1.867623138361e+01 1.000000000000e+00 
1.867823206818e+01 1.000000000000e+00 
1.868023275274e+01 1.000000000000e+00 
1.868223343731e+01 1.000000000000e+00 
1.868423412188e+01 1.000000000000e+00 
1.961987876831e+01 1.000000000000e+00 
1.962171272916e+01 1.000000000000e+00 
1.962354669001e+01 1.000000000000e+00 
1.962538065087e+01 1.000000000000e+00 
1.962721461172e+01 1.000000000000e+00 
2.056352615301e+01 1.000000000000e+00 
2.056519339015e+01 1.000000000000e+00 
2.056686062729e+01 1.000000000000e+00 
2.056852786442e+01 1.000000000000e+00 
2.057019510156e+01 1.000000000000e+00 
2.150717353771e+01 1.000000000000e+00 
2.150867405113e+01 1.000000000000e+00 
2.151017456456e+01 1.000000000000e+00 
2.151167507798e+01 1.000000000000e+00 
2.151317559141e+01 1.000000000000e+00 
2.245082092241e+01 1.000000000000e+00 
2.245215471212e+01 1.000000000000e+00 
2.245348850183e+01 1.000000000000e+00 
2.245482229154e+01 1.000000000000e+00 
2.245615608125e+01 1.000000000000e+00 
2.339446830710e+01 1.000000000000e+00 
2.339563537310e+01 1.000000000000e+00 
2.339680243910e+01 1.000000000000e+00 
2.339796950510e+01 1.000000000000e+00 
2.339913657109e+01 1.000000000000e+00 
2.433811569180e+01 1.000000000000e+00 
2.433911603409e+01 1.000000000000e+00 
2.434011637637e+01 1.000000000000e+00 
2.434111671865e+01 1.000000000000e+00 
2.434211706094e+01 1.000000000000e+00 
2.528176307650e+01 1.000000000000e+00 
2.528259669507e+01 1.000000000000e+00 
2.528343031364e+01 1.000000000000e+00 
2.528426393221e+01 1.000000000000e+00 
2.528509755078e+01 1.000000000000e+00 
2.622541046120e+01 1.000000000000e+00 
2.622607735606e+01 1.000000000000e+00 
2.622674425091e+01 1.000000000000e+00 
2.622741114577e+01 1.000000000000e+00 
2.622807804063e+01 1.000000000000e+00 
2.716905784590e+01 1.000000000000e+00 
2.716955801704e+01 1.000000000000e+00 
2.717005818819e+01 1.000000000000e+00 
2.717055835933e+01 1.000000000000e+00 
2.717105853047e+01 1.000000000000e+00 
2.811270523060e+01 1.000000000000e+00 
2.811303867803e+01 1.000000000000e+00 
2.811337212546e+01 1.000000000000e+00 
2.811370557288e+01 1.000000000000e+00 
2.811403902031e+01 1.000000000000e+00 
2.905635261530e+01 1.000000000000e+00 
2.905651933901e+01 1.000000000000e+00 
2.905668606273e+01 1.000000000000e+00 
2.905685278644e+01 1.000000000000e+00 
2.905701951016e+01 1.000000000000e+00 
3.000000000000e+01 1.000000000000e+00 
3.000000000000e+01 1.000000000000e+00 
3.000000000000e+01 1.000000000000e+00 
3.000000000000e+01 1.000000000000e+00 
3.000000000000e+01 1.000000000000e+00 
3.002500000000e+01 1.000000000000e+00 
3.002500000000e+01 1.000000000000e+00 
3.002500000000e+01 1.000000000000e+00 
3.002500000000e+01 1.000000000000e+00 
3.002500000000e+01 1.000000000000e+00 
3.005000000000e+01 1.000000000000e+00 
3.005000000000e+01 1.000000000000e+00 
3.005000000000e+01 1.000000000000e+00 
3.005000000000e+01 1.000000000000e+00 
3.005000000000e+01 1.000000000000e+00 
3.007500000000e+01 1.000000000000e+00 
3.007500000000e+01 1.000000000000e+00 
3.007500000000e+01 1.000000000000e+00 
3.007500000000e+01 1.000000000000e+00 
3.007500000000e+01 1.000000000000e+00 
3.010000000000e+01 1.000000000000e+00 
3.010000000000e+01 1.000000000000e+00 
3.010000000000e+01 1.000000000000e+00 
3.010000000000e+01 1.000000000000e+00 
3.010000000000e+01 1.000000000000e+00 
3.012500000000e+01 1.000000000000e+00 
3.012500000000e+01 1.000000000000e+00 
3.012500000000e+01 1.000000000000e+00 
3.012500000000e+01 1.000000000000e+00 
3.012500000000e+01 1.000000000000e+00 
3.015000000000e+01 1.000000000000e+00 
3.015000000000e+01 1.000000000000e+00 
3.015000000000e+01 1.000000000000e+00 