 TITLE = "Profiles along polylines"
 VARIABLES = "DIST" "SATURATION1" 
 ZONE T="TIME=0.000000000000e+00"
5.401848330749e-01 1.000000000000e+00 
5.451865444923e-01 1.000000000000e+00 
5.501882559096e-01 1.000000000000e+00 
5.551899673270e-01 1.000000000000e+00 
5.601916787443e-01 1.000000000000e+00 
1.522178671972e+00 1.000000000000e+00 
1.527013659676e+00 1.000000000000e+00 
1.531848647379e+00 1.000000000000e+00 
1.536683635083e+00 1.000000000000e+00 
1.541518622786e+00 1.000000000000e+00 
2.504172510869e+00 1.000000000000e+00 
2.508840774859e+00 1.000000000000e+00 
2.513509038848e+00 1.000000000000e+00 
2.518177302838e+00 1.000000000000e+00 
2.522845566827e+00 1.000000000000e+00 
3.486166349767e+00 1.000000000000e+00 
3.490667890043e+00 1.000000000000e+00 
3.495169430318e+00 1.000000000000e+00 
3.499670970594e+00 1.000000000000e+00 
3.504172510869e+00 1.000000000000e+00 
4.468160188665e+00 1.000000000000e+00 
4.472495005226e+00 1.000000000000e+00 
4.476829821788e+00 1.000000000000e+00 
4.481164638350e+00 1.000000000000e+00 
4.485499454912e+00 1.000000000000e+00 
5.450154027561e+00 1.000000000000e+00 
5.454322120409e+00 1.000000000000e+00 
5.458490213257e+00 1.000000000000e+00 
5.462658306105e+00 1.000000000000e+00 
5.466826398953e+00 1.000000000000e+00 
6.432147866458e+00 1.000000000000e+00 
6.436149235592e+00 1.000000000000e+00 
6.440150604726e+00 1.000000000000e+00 
6.444151973860e+00 1.000000000000e+00 
6.448153342994e+00 1.000000000000e+00 
7.414141705355e+00 1.000000000000e+00 
7.417976350775e+00 1.000000000000e+00 
7.421810996195e+00 1.000000000000e+00 
7.425645641615e+00 1.000000000000e+00 
7.429480287035e+00 1.000000000000e+00 
8.396135544251e+00 1.000000000000e+00 
8.399803465957e+00 1.000000000000e+00 
8.403471387663e+00 1.000000000000e+00 
8.407139309369e+00 1.000000000000e+00 
8.410807231075e+00 1.000000000000e+00 
9.378129383145e+00 1.000000000000e+00 
9.381630581137e+00 1.000000000000e+00 
9.385131779130e+00 1.000000000000e+00 
9.388632977122e+00 1.000000000000e+00 
9.392134175114e+00 1.000000000000e+00 
1.036012322204e+01 1.000000000000e+00 
1.036345769632e+01 1.000000000000e+00 
1.036679217060e+01 1.000000000000e+00 
1.037012664487e+01 1.000000000000e+00 
1.037346111915e+01 1.000000000000e+00 
1.134211706093e+01 1.000000000000e+00 
1.134528481150e+01 1.000000000000e+00 
1.134845256206e+01 1.000000000000e+00 
1.135162031263e+01 1.000000000000e+00 
1.135478806319e+01 1.000000000000e+00 
1.232411089983e+01 1.000000000000e+00 
1.232711192668e+01 1.000000000000e+00 
1.233011295353e+01 1.000000000000e+00 
1.233311398038e+01 1.000000000000e+00 
1.233611500723e+01 1.000000000000e+00 
1.330610473872e+01 1.000000000000e+00 
1.330893904186e+01 1.000000000000e+00 
1.331177334499e+01 1.000000000000e+00 
1.331460764813e+01 1.000000000000e+00 
1.331744195127e+01 1.000000000000e+00 
1.428809857761e+01 1.000000000000e+00 
1.429076615704e+01 1.000000000000e+00 
1.429343373646e+01 1.000000000000e+00 
1.429610131588e+01 1.000000000000e+00 
1.429876889531e+01 1.000000000000e+00 
1.527009241651e+01 1.000000000000e+00 
1.527259327222e+01 1.000000000000e+00 
1.527509412793e+01 1.000000000000e+00 
1.527759498363e+01 1.000000000000e+00 
1.528009583934e+01 1.000000000000e+00 
1.625208625541e+01 1.000000000000e+00 
1.625442038740e+01 1.000000000000e+00 
1.625675451940e+01 1.000000000000e+00 
1.625908865139e+01 1.000000000000e+00 
1.626142278339e+01 1.000000000000e+00 
1.723408009431e+01 1.000000000000e+00 
1.723624750259e+01 1.000000000000e+00 
1.723841491087e+01 1.000000000000e+00 
1.724058231915e+01 1.000000000000e+00 
1.724274972743e+01 1.000000000000e+00 
1.821607393321e+01 1.000000000000e+00 
1.821807461777e+01 1.000000000000e+00 
1.822007530234e+01 1.000000000000e+00 
1.822207598691e+01 1.000000000000e+00 
1.822407667147e+01 1.000000000000e+00 
1.919806777211e+01 1.000000000000e+00 
1.919990173296e+01 1.000000000000e+00 
1.920173569381e+01 1.000000000000e+00 
1.920356965467e+01 1.000000000000e+00 
1.920540361552e+01 1.000000000000e+00 
2.018006161101e+01 1.000000000000e+00 
2.018172884814e+01 1.000000000000e+00 
2.018339608528e+01 1.000000000000e+00 
2.018506332242e+01 1.000000000000e+00 
2.018673055956e+01 1.000000000000e+00 
2.116205544991e+01 1.000000000000e+00 
2.116355596333e+01 1.000000000000e+00 
2.116505647676e+01 1.000000000000e+00 
2.116655699018e+01 1.000000000000e+00 
2.116805750361e+01 1.000000000000e+00 
2.214404928880e+01 1.000000000000e+00 
2.214538307852e+01 1.000000000000e+00 
2.214671686823e+01 1.000000000000e+00 
2.214805065794e+01 1.000000000000e+00 
2.214938444765e+01 1.000000000000e+00 
2.312604312770e+01 1.000000000000e+00 
2.312721019370e+01 1.000000000000e+00 
2.312837725970e+01 1.000000000000e+00 
2.312954432570e+01 1.000000000000e+00 
2.313071139169e+01 1.000000000000e+00 
2.410803696660e+01 1.000000000000e+00 
2.410903730889e+01 1.000000000000e+00 
2.411003765117e+01 1.000000000000e+00 
2.411103799345e+01 1.000000000000e+00 
2.411203833574e+01 1.000000000000e+00 
2.509003080550e+01 1.000000000000e+00 
2.509086442407e+01 1.000000000000e+00 
2.509169804264e+01 1.000000000000e+00 
2.509253166121e+01 1.000000000000e+00 
2.509336527978e+01 1.000000000000e+00 
2.607202464440e+01 1.000000000000e+00 
2.607269153926e+01 1.000000000000e+00 
2.607335843411e+01 1.000000000000e+00 
2.607402532897e+01 1.000000000000e+00 
2.607469222382e+01 1.000000000000e+00 
2.705401848330e+01 1.000000000000e+00 
2.705451865444e+01 1.000000000000e+00 
2.705501882559e+01 1.000000000000e+00 
2.705551899673e+01 1.000000000000e+00 
2.705601916787e+01 1.000000000000e+00 
2.803601232220e+01 1.000000000000e+00 
2.803634576963e+01 1.000000000000e+00 
2.803667921706e+01 1.000000000000e+00 
2.803701266448e+01 1.000000000000e+00 
2.803734611191e+01 1.000000000000e+00 
2.901800616110e+01 1.000000000000e+00 
2.901817288481e+01 1.000000000000e+00 
2.901833960853e+01 1.000000000000e+00 
2.901850633224e+01 1.000000000000e+00 
2.901867305596e+01 1.000000000000e+00 
3.000000000000e+01 1.000000000000e+00 
3.000000000000e+01 1.000000000000e+00 
3.000000000000e+01 1.000000000000e+00 
3.000000000000e+01 1.000000000000e+00 
3.000000000000e+01 1.000000000000e+00 
3.002500000000e+01 9.876207709446e-01 
3.002500000000e+01 9.876207709446e-01 
3.002500000000e+01 9.876207709446e-01 
3.002500000000e+01 9.876207709446e-01 
3.002500000000e+01 9.876207709446e-01 
3.005000000000e+01 9.697756439369e-01 
3.005000000000e+01 9.697756439369e-01 
3.005000000000e+01 9.697756439369e-01 
3.005000000000e+01 9.697756439369e-01 
3.005000000000e+01 9.697756439369e-01 
3.007500000000e+01 9.507134089444e-01 
3.007500000000e+01 9.507134089444e-01 
3.007500000000e+01 9.507134089444e-01 
3.007500000000e+01 9.507134089444e-01 
3.007500000000e+01 9.507134089444e-01 
3.010000000000e+01 9.315621650298e-01 
3.010000000000e+01 9.315621650298e-01 
3.010000000000e+01 9.315621650298e-01 
3.010000000000e+01 9.315621650298e-01 
3.010000000000e+01 9.315621650298e-01 
3.012500000000e+01 9.128758324042e-01 
3.012500000000e+01 9.128758324042e-01 
3.012500000000e+01 9.128758324042e-01 
3.012500000000e+01 9.128758324042e-01 
3.012500000000e+01 9.128758324042e-01 
3.015000000000e+01 8.949248043380e-01 
3.015000000000e+01 8.949248043380e-01 
3.015000000000e+01 8.949248043380e-01 
3.015000000000e+01 8.949248043380e-01 
3.015000000000e+01 8.949248043380e-01 
3.017500000000e+01 8.778290027968e-01 
3.017500000000e+01 8.778290027968e-01 
3.017500000000e+01 8.778290027968e-01 
3.017500000000e+01 8.778290027968e-01 
3.017500000000e+01 8.778290027968e-01 
3.020000000000e+01 8.616255702900e-01 
3.020000000000e+01 8.616255702900e-01 
3.020000000000e+01 8.616255702900e-01 
3.020000000000e+01 8.616255702900e-01 
3.020000000000e+01 8.616255702900e-01 
3.022500000000e+01 8.463059583920e-01 
3.022500000000e+01 8.463059583920e-01 
3.022500000000e+01 8.463059583920e-01 
3.022500000000e+01 8.463059583920e-01 
3.022500000000e+01 8.463059583920e-01 
3.025000000000e+01 8.318370344398e-01 
3.025000000000e+01 8.318370344398e-01 
3.025000000000e+01 8.318370344398e-01 
3.025000000000e+01 8.318370344398e-01 
3.025000000000e+01 8.318370344398e-01 
3.027500000000e+01 8.181733156316e-01 
3.027500000000e+01 8.181733156316e-01 
3.027500000000e+01 8.181733156316e-01 
3.027500000000e+01 8.181733156316e-01 
3.027500000000e+01 8.181733156316e-01 
3.030000000000e+01 8.052640970350e-01 
3.030000000000e+01 8.052640970350e-01 
3.030000000000e+01 8.052640970350e-01 
3.030000000000e+01 8.052640970350e-01 
3.030000000000e+01 8.052640970350e-01 
3.032500000000e+01 7.930575753856e-01 
3.032500000000e+01 7.930575753856e-01 
3.032500000000e+01 7.930575753856e-01 
3.032500000000e+01 7.930575753856e-01 
3.032500000000e+01 7.930575753856e-01 
3.035000000000e+01 7.815031815402e-01 
3.035000000000e+01 7.815031815402e-01 
3.035000000000e+01 7.815031815402e-01 
3.035000000000e+01 7.815031815402e-01 
3.035000000000e+01 7.815031815402e-01 
3.037500000000e+01 7.705528376764e-01 
3.037500000000e+01 7.705528376764e-01 
3.037500000000e+01 7.705528376764e-01 
3.037500000000e+01 7.705528376764e-01 
3.037500000000e+01 7.705528376764e-01 
3.040000000000e+01 7.601615689674e-01 
3.040000000000e+01 7.601615689674e-01 
3.040000000000e+01 7.601615689674e-01 
3.040000000000e+01 7.601615689674e-01 
3.040000000000e+01 7.601615689674e-01 
3.042500000000e+01 7.502877306002e-01 
3.042500000000e+01 7.502877306002e-01 
3.042500000000e+01 7.502877306002e-01 
3.042500000000e+01 7.502877306002e-01 
3.042500000000e+01 7.502877306002e-01 
3.045000000000e+01 7.408930096824e-01 
3.045000000000e+01 7.408930096824e-01 
3.045000000000e+01 7.408930096824e-01 
3.045000000000e+01 7.408930096824e-01 
3.045000000000e+01 7.408930096824e-01 
3.047500000000e+01 7.319422999608e-01 
3.047500000000e+01 7.319422999608e-01 
3.047500000000e+01 7.319422999608e-01 
3.047500000000e+01 7.319422999608e-01 
3.047500000000e+01 7.319422999608e-01 
3.050000000000e+01 7.234035093991e-01 
3.050000000000e+01 7.234035093991e-01 
3.050000000000e+01 7.234035093991e-01 
3.050000000000e+01 7.234035093991e-01 
3.050000000000e+01 7.234035093991e-01 
3.052500000000e+01 7.152473371957e-01 
3.052500000000e+01 7.152473371957e-01 
3.052500000000e+01 7.152473371957e-01 
3.052500000000e+01 7.152473371957e-01 
3.052500000000e+01 7.152473371957e-01 
3.055000000000e+01 7.074470422112e-01 
3.055000000000e+01 7.074470422112e-01 
3.055000000000e+01 7.074470422112e-01 
3.055000000000e+01 7.074470422112e-01 
3.055000000000e+01 7.074470422112e-01 
3.057500000000e+01 6.999782156504e-01 
3.057500000000e+01 6.999782156504e-01 
3.057500000000e+01 6.999782156504e-01 
3.057500000000e+01 6.999782156504e-01 
3.057500000000e+01 6.999782156504e-01 
3.060000000000e+01 6.928185651596e-01 
3.060000000000e+01 6.928185651596e-01 
3.060000000000e+01 6.928185651596e-01 
3.060000000000e+01 6.928185651596e-01 
3.060000000000e+01 6.928185651596e-01 
3.062500000000e+01 6.859477139679e-01 
3.062500000000e+01 6.859477139679e-01 
3.062500000000e+01 6.859477139679e-01 
3.062500000000e+01 6.859477139679e-01 
3.062500000000e+01 6.859477139679e-01 
3.065000000000e+01 6.793470165436e-01 
3.065000000000e+01 6.793470165436e-01 
3.065000000000e+01 6.793470165436e-01 
3.065000000000e+01 6.793470165436e-01 
3.065000000000e+01 6.793470165436e-01 
3.067500000000e+01 6.729993909360e-01 
3.067500000000e+01 6.729993909360e-01 
3.067500000000e+01 6.729993909360e-01 
3.067500000000e+01 6.729993909360e-01 
3.067500000000e+01 6.729993909360e-01 
3.070000000000e+01 6.668891672206e-01 
3.070000000000e+01 6.668891672206e-01 
3.070000000000e+01 6.668891672206e-01 
3.070000000000e+01 6.668891672206e-01 
3.070000000000e+01 6.668891672206e-01 
3.072500000000e+01 6.610019510587e-01 
3.072500000000e+01 6.610019510587e-01 
3.072500000000e+01 6.610019510587e-01 
3.072500000000e+01 6.610019510587e-01 
3.072500000000e+01 6.610019510587e-01 
3.075000000000e+01 6.553245011865e-01 
3.075000000000e+01 6.553245011865e-01 
3.075000000000e+01 6.553245011865e-01 
3.075000000000e+01 6.553245011865e-01 
3.075000000000e+01 6.553245011865e-01 
3.077500000000e+01 6.498446195878e-01 
3.077500000000e+01 6.498446195878e-01 
3.077500000000e+01 6.498446195878e-01 
3.077500000000e+01 6.498446195878e-01 
3.077500000000e+01 6.498446195878e-01 
3.080000000000e+01 6.445510531188e-01 
3.080000000000e+01 6.445510531188e-01 
3.080000000000e+01 6.445510531188e-01 
3.080000000000e+01 6.445510531188e-01 
3.080000000000e+01 6.445510531188e-01 
3.082500000000e+01 6.394334054150e-01 
3.082500000000e+01 6.394334054150e-01 
3.082500000000e+01 6.394334054150e-01 
3.082500000000e+01 6.394334054150e-01 
3.082500000000e+01 6.394334054150e-01 
3.085000000000e+01 6.344820579917e-01 
3.085000000000e+01 6.344820579917e-01 
3.085000000000e+01 6.344820579917e-01 
3.085000000000e+01 6.344820579917e-01 
3.085000000000e+01 6.344820579917e-01 
3.087500000000e+01 6.296880995462e-01 
3.087500000000e+01 6.296880995462e-01 
3.087500000000e+01 6.296880995462e-01 
3.087500000000e+01 6.296880995462e-01 
3.087500000000e+01 6.296880995462e-01 
3.090000000000e+01 6.250432625624e-01 
3.090000000000e+01 6.250432625624e-01 
3.090000000000e+01 6.250432625624e-01 
3.090000000000e+01 6.250432625624e-01 
3.090000000000e+01 6.250432625624e-01 
3.092500000000e+01 6.205398664126e-01 
3.092500000000e+01 6.205398664126e-01 
3.092500000000e+01 6.205398664126e-01 
3.092500000000e+01 6.205398664126e-01 
3.092500000000e+01 6.205398664126e-01 
3.095000000000e+01 6.161707662369e-01 
3.095000000000e+01 6.161707662369e-01 
3.095000000000e+01 6.161707662369e-01 
3.095000000000e+01 6.161707662369e-01 
3.095000000000e+01 6.161707662369e-01 
3.097500000000e+01 6.119293069613e-01 
3.097500000000e+01 6.119293069613e-01 
3.097500000000e+01 6.119293069613e-01 
3.097500000000e+01 6.119293069613e-01 
3.097500000000e+01 6.119293069613e-01 
3.100000000000e+01 6.078092818871e-01 
3.100000000000e+01 6.078092818871e-01 
3.100000000000e+01 6.078092818871e-01 
3.100000000000e+01 6.078092818871e-01 
3.100000000000e+01 6.078092818871e-01 
3.102500000000e+01 6.038048953494e-01 
3.102500000000e+01 6.038048953494e-01 
3.102500000000e+01 6.038048953494e-01 
3.102500000000e+01 6.038048953494e-01 
3.102500000000e+01 6.038048953494e-01 
3.105000000000e+01 5.999107290013e-01 
3.105000000000e+01 5.999107290013e-01 
3.105000000000e+01 5.999107290013e-01 
3.105000000000e+01 5.999107290013e-01 
3.105000000000e+01 5.999107290013e-01 
3.107500000000e+01 5.961217113309e-01 
3.107500000000e+01 5.961217113309e-01 
3.107500000000e+01 5.961217113309e-01 
3.107500000000e+01 5.961217113309e-01 
3.107500000000e+01 5.961217113309e-01 
3.110000000000e+01 5.924330900627e-01 
3.110000000000e+01 5.924330900627e-01 
3.110000000000e+01 5.924330900627e-01 
3.110000000000e+01 5.924330900627e-01 
3.110000000000e+01 5.924330900627e-01 
3.112500000000e+01 5.888404071392e-01 
3.112500000000e+01 5.888404071392e-01 
3.112500000000e+01 5.888404071392e-01 
3.112500000000e+01 5.888404071392e-01 
3.112500000000e+01 5.888404071392e-01 
3.115000000000e+01 5.853394760078e-01 
3.115000000000e+01 5.853394760078e-01 
3.115000000000e+01 5.853394760078e-01 
3.115000000000e+01 5.853394760078e-01 
3.115000000000e+01 5.853394760078e-01 
3.117500000000e+01 5.819263609758e-01 
3.117500000000e+01 5.819263609758e-01 
3.117500000000e+01 5.819263609758e-01 
3.117500000000e+01 5.819263609758e-01 
3.117500000000e+01 5.819263609758e-01 
3.120000000000e+01 5.785973584173e-01 
3.120000000000e+01 5.785973584173e-01 
3.120000000000e+01 5.785973584173e-01 
3.120000000000e+01 5.785973584173e-01 
3.120000000000e+01 5.785973584173e-01 
3.122500000000e+01 5.753489796460e-01 
3.122500000000e+01 5.753489796460e-01 
3.122500000000e+01 5.753489796460e-01 
3.122500000000e+01 5.753489796460e-01 
3.122500000000e+01 5.753489796460e-01 
3.125000000000e+01 5.721779352840e-01 
3.125000000000e+01 5.721779352840e-01 
3.125000000000e+01 5.721779352840e-01 
3.125000000000e+01 5.721779352840e-01 
3.125000000000e+01 5.721779352840e-01 
3.127500000000e+01 5.690811209785e-01 
3.127500000000e+01 5.690811209785e-01 
3.127500000000e+01 5.690811209785e-01 
3.127500000000e+01 5.690811209785e-01 
3.127500000000e+01 5.690811209785e-01 
3.130000000000e+01 5.660556043336e-01 
3.130000000000e+01 5.660556043336e-01 
3.130000000000e+01 5.660556043336e-01 
3.130000000000e+01 5.660556043336e-01 
3.130000000000e+01 5.660556043336e-01 
3.132500000000e+01 5.630986129391e-01 
3.132500000000e+01 5.630986129391e-01 
3.132500000000e+01 5.630986129391e-01 
3.132500000000e+01 5.630986129391e-01 
3.132500000000e+01 5.630986129391e-01 
3.135000000000e+01 5.602075233904e-01 
3.135000000000e+01 5.602075233904e-01 
3.135000000000e+01 5.602075233904e-01 
3.135000000000e+01 5.602075233904e-01 
3.135000000000e+01 5.602075233904e-01 
3.137500000000e+01 5.573798512060e-01 
3.137500000000e+01 5.573798512060e-01 
3.137500000000e+01 5.573798512060e-01 
3.137500000000e+01 5.573798512060e-01 
3.137500000000e+01 5.573798512060e-01 
3.140000000000e+01 5.546132415581e-01 
3.140000000000e+01 5.546132415581e-01 
3.140000000000e+01 5.546132415581e-01 
3.140000000000e+01 5.546132415581e-01 
3.140000000000e+01 5.546132415581e-01 
3.142500000000e+01 5.519054607414e-01 
3.142500000000e+01 5.519054607414e-01 
3.142500000000e+01 5.519054607414e-01 
3.142500000000e+01 5.519054607414e-01 
3.142500000000e+01 5.519054607414e-01 
3.145000000000e+01 5.492543883110e-01 
3.145000000000e+01 5.492543883110e-01 
3.145000000000e+01 5.492543883110e-01 
3.145000000000e+01 5.492543883110e-01 
3.145000000000e+01 5.492543883110e-01 
3.147500000000e+01 5.466580098318e-01 
3.147500000000e+01 5.466580098318e-01 
3.147500000000e+01 5.466580098318e-01 
3.147500000000e+01 5.466580098318e-01 
3.147500000000e+01 5.466580098318e-01 
3.150000000000e+01 5.441144101810e-01 
3.150000000000e+01 5.441144101810e-01 
3.150000000000e+01 5.441144101810e-01 
3.150000000000e+01 5.441144101810e-01 
3.150000000000e+01 5.441144101810e-01 
3.152500000000e+01 5.416217673588e-01 
3.152500000000e+01 5.416217673588e-01 
3.152500000000e+01 5.416217673588e-01 
3.152500000000e+01 5.416217673588e-01 
3.152500000000e+01 5.416217673588e-01 
3.155000000000e+01 5.391783467591e-01 
3.155000000000e+01 5.391783467591e-01 
3.155000000000e+01 5.391783467591e-01 
3.155000000000e+01 5.391783467591e-01 
3.155000000000e+01 5.391783467591e-01 
3.157500000000e+01 5.367824958643e-01 
3.157500000000e+01 5.367824958643e-01 
3.157500000000e+01 5.367824958643e-01 
3.157500000000e+01 5.367824958643e-01 
3.157500000000e+01 5.367824958643e-01 
3.160000000000e+01 5.344326393247e-01 
3.160000000000e+01 5.344326393247e-01 
3.160000000000e+01 5.344326393247e-01 
3.160000000000e+01 5.344326393247e-01 
3.160000000000e+01 5.344326393247e-01 
3.162500000000e+01 5.321272743928e-01 
3.162500000000e+01 5.321272743928e-01 
3.162500000000e+01 5.321272743928e-01 
3.162500000000e+01 5.321272743928e-01 
3.162500000000e+01 5.321272743928e-01 
3.165000000000e+01 5.298649666811e-01 
3.165000000000e+01 5.298649666811e-01 
3.165000000000e+01 5.298649666811e-01 
3.165000000000e+01 5.298649666811e-01 
3.165000000000e+01 5.298649666811e-01 
3.167500000000e+01 5.276443462180e-01 
3.167500000000e+01 5.276443462180e-01 
3.167500000000e+01 5.276443462180e-01 
3.167500000000e+01 5.276443462180e-01 
3.167500000000e+01 5.276443462180e-01 
3.170000000000e+01 5.254641037767e-01 
3.170000000000e+01 5.254641037767e-01 
3.170000000000e+01 5.254641037767e-01 
3.170000000000e+01 5.254641037767e-01 
3.170000000000e+01 5.254641037767e-01 
3.172500000000e+01 5.233229874560e-01 
3.172500000000e+01 5.233229874560e-01 
3.172500000000e+01 5.233229874560e-01 
3.172500000000e+01 5.233229874560e-01 
3.172500000000e+01 5.233229874560e-01 
3.175000000000e+01 5.212197994921e-01 
3.175000000000e+01 5.212197994921e-01 
3.175000000000e+01 5.212197994921e-01 
3.175000000000e+01 5.212197994921e-01 
3.175000000000e+01 5.212197994921e-01 
3.177500000000e+01 5.191533932842e-01 
3.177500000000e+01 5.191533932842e-01 
3.177500000000e+01 5.191533932842e-01 
3.177500000000e+01 5.191533932842e-01 
3.177500000000e+01 5.191533932842e-01 
3.180000000000e+01 5.171226706164e-01 
3.180000000000e+01 5.171226706164e-01 
3.180000000000e+01 5.171226706164e-01 
3.180000000000e+01 5.171226706164e-01 
3.180000000000e+01 5.171226706164e-01 
3.182500000000e+01 5.151265790614e-01 
3.182500000000e+01 5.151265790614e-01 
3.182500000000e+01 5.151265790614e-01 
3.182500000000e+01 5.151265790614e-01 
3.182500000000e+01 5.151265790614e-01 
3.185000000000e+01 5.131641095520e-01 
3.185000000000e+01 5.131641095520e-01 
3.185000000000e+01 5.131641095520e-01 
3.185000000000e+01 5.131641095520e-01 
3.185000000000e+01 5.131641095520e-01 
3.187500000000e+01 5.112342941078e-01 
3.187500000000e+01 5.112342941078e-01 
3.187500000000e+01 5.112342941078e-01 
3.187500000000e+01 5.112342941078e-01 
3.187500000000e+01 5.112342941078e-01 
3.190000000000e+01 5.093362037054e-01 
3.190000000000e+01 5.093362037054e-01 
3.190000000000e+01 5.093362037054e-01 
3.190000000000e+01 5.093362037054e-01 
3.190000000000e+01 5.093362037054e-01 
3.192500000000e+01 5.074689462822e-01 
3.192500000000e+01 5.074689462822e-01 
3.192500000000e+01 5.074689462822e-01 
3.192500000000e+01 5.074689462822e-01 
3.192500000000e+01 5.074689462822e-01 
3.195000000000e+01 5.056316648631e-01 
3.195000000000e+01 5.056316648631e-01 
3.195000000000e+01 5.056316648631e-01 
3.195000000000e+01 5.056316648631e-01 
3.195000000000e+01 5.056316648631e-01 
3.197500000000e+01 5.038235358020e-01 
3.197500000000e+01 5.038235358020e-01 
3.197500000000e+01 5.038235358020e-01 
3.197500000000e+01 5.038235358020e-01 
3.197500000000e+01 5.038235358020e-01 
3.200000000000e+01 5.016003484513e-01 
3.200000000000e+01 5.016025808729e-01 
3.200000000000e+01 5.016036954443e-01 
3.200000000000e+01 5.016014652082e-01 
3.200000000000e+01 5.016048089215e-01 
3.270803696661e+01 4.602820017670e-01 
3.270903730890e+01 4.602326157883e-01 
3.271003765118e+01 4.601832521132e-01 
3.271103799347e+01 4.601339107248e-01 
3.271203833575e+01 4.600845916062e-01 
3.341607393323e+01 4.312110789978e-01 
3.341807461780e+01 4.311390885165e-01 
3.342007530236e+01 4.310671523360e-01 
3.342207598693e+01 4.309952703854e-01 
3.342407667150e+01 4.309234425944e-01 
3.412411089984e+01 4.089702650171e-01 
3.412711192670e+01 4.088860432457e-01 
3.413011295355e+01 4.088019011573e-01 
3.413311398040e+01 4.087178386209e-01 
3.413611500725e+01 4.086338555059e-01 
3.483214786646e+01 3.911828061209e-01 
3.483614923559e+01 3.910916190405e-01 
3.484015060473e+01 3.910005305891e-01 
3.484415197386e+01 3.909095405810e-01 
3.484815334300e+01 3.908186488309e-01 
3.554018483307e+01 3.764855462690e-01 
3.554518654449e+01 3.763903012623e-01 
3.555018825591e+01 3.762951689129e-01 
3.555518996733e+01 3.762001489886e-01 
3.556019167874e+01 3.761052412579e-01 
 TITLE = "Profiles along polylines"
 VARIABLES = "DIST" "SATURATION1" 
 ZONE T="TIME=1.797693134862e+308"
5.401848330749e-01 1.000000000000e+00 
5.451865444923e-01 1.000000000000e+00 
5.501882559096e-01 1.000000000000e+00 
5.551899673270e-01 1.000000000000e+00 
5.601916787443e-01 1.000000000000e+00 
1.522178671972e+00 1.000000000000e+00 
1.527013659676e+00 1.000000000000e+00 
1.531848647379e+00 1.000000000000e+00 
1.536683635083e+00 1.000000000000e+00 
1.541518622786e+00 1.000000000000e+00 
2.504172510869e+00 1.000000000000e+00 
2.508840774859e+00 1.000000000000e+00 
2.513509038848e+00 1.000000000000e+00 
2.518177302838e+00 1.000000000000e+00 
2.522845566827e+00 1.000000000000e+00 
3.486166349767e+00 1.000000000000e+00 
3.490667890043e+00 1.000000000000e+00 
3.495169430318e+00 1.000000000000e+00 
3.499670970594e+00 1.000000000000e+00 
3.504172510869e+00 1.000000000000e+00 
4.468160188665e+00 1.000000000000e+00 
4.472495005226e+00 1.000000000000e+00 
4.476829821788e+00 1.000000000000e+00 
4.481164638350e+00 1.000000000000e+00 
4.485499454912e+00 1.000000000000e+00 
5.450154027561e+00 1.000000000000e+00 
5.454322120409e+00 1.000000000000e+00 
5.458490213257e+00 1.000000000000e+00 
5.462658306105e+00 1.000000000000e+00 
5.466826398953e+00 1.000000000000e+00 
6.432147866458e+00 1.000000000000e+00 
6.436149235592e+00 1.000000000000e+00 
6.440150604726e+00 1.000000000000e+00 
6.444151973860e+00 1.000000000000e+00 
6.448153342994e+00 1.000000000000e+00 
7.414141705355e+00 1.000000000000e+00 
7.417976350775e+00 1.000000000000e+00 
7.421810996195e+00 1.000000000000e+00 
7.425645641615e+00 1.000000000000e+00 
7.429480287035e+00 1.000000000000e+00 
8.396135544251e+00 1.000000000000e+00 
8.399803465957e+00 1.000000000000e+00 
8.403471387663e+00 1.000000000000e+00 
8.407139309369e+00 1.000000000000e+00 
8.410807231075e+00 1.000000000000e+00 
9.378129383145e+00 1.000000000000e+00 
9.381630581137e+00 1.000000000000e+00 
9.385131779130e+00 1.000000000000e+00 
9.388632977122e+00 1.000000000000e+00 
9.392134175114e+00 1.000000000000e+00 
1.036012322204e+01 1.000000000000e+00 
1.036345769632e+01 1.000000000000e+00 
1.036679217060e+01 1.000000000000e+00 
1.037012664487e+01 1.000000000000e+00 
1.037346111915e+01 1.000000000000e+00 
1.134211706093e+01 1.000000000000e+00 
1.134528481150e+01 1.000000000000e+00 
1.134845256206e+01 1.000000000000e+00 
1.135162031263e+01 1.000000000000e+00 
1.135478806319e+01 1.000000000000e+00 
1.232411089983e+01 1.000000000000e+00 
1.232711192668e+01 1.000000000000e+00 
1.233011295353e+01 1.000000000000e+00 
1.233311398038e+01 1.000000000000e+00 
1.233611500723e+01 1.000000000000e+00 
1.330610473872e+01 1.000000000000e+00 
1.330893904186e+01 1.000000000000e+00 
1.331177334499e+01 1.000000000000e+00 
1.331460764813e+01 1.000000000000e+00 
1.331744195127e+01 1.000000000000e+00 
1.428809857761e+01 1.000000000000e+00 
1.429076615704e+01 1.000000000000e+00 
1.429343373646e+01 1.000000000000e+00 
1.429610131588e+01 1.000000000000e+00 
1.429876889531e+01 1.000000000000e+00 
1.527009241651e+01 1.000000000000e+00 
1.527259327222e+01 1.000000000000e+00 
1.527509412793e+01 1.000000000000e+00 
1.527759498363e+01 1.000000000000e+00 
1.528009583934e+01 1.000000000000e+00 
1.625208625541e+01 1.000000000000e+00 
1.625442038740e+01 1.000000000000e+00 
1.625675451940e+01 1.000000000000e+00 
1.625908865139e+01 1.000000000000e+00 
1.626142278339e+01 1.000000000000e+00 
1.723408009431e+01 1.000000000000e+00 
1.723624750259e+01 1.000000000000e+00 
1.723841491087e+01 1.000000000000e+00 
1.724058231915e+01 1.000000000000e+00 
1.724274972743e+01 1.000000000000e+00 
1.821607393321e+01 1.000000000000e+00 
1.821807461777e+01 1.000000000000e+00 
1.822007530234e+01 1.000000000000e+00 
1.822207598691e+01 1.000000000000e+00 
1.822407667147e+01 1.000000000000e+00 
1.919806777211e+01 1.000000000000e+00 
1.919990173296e+01 1.000000000000e+00 
1.920173569381e+01 1.000000000000e+00 
1.920356965467e+01 1.000000000000e+00 
1.920540361552e+01 1.000000000000e+00 
2.018006161101e+01 1.000000000000e+00 
2.018172884814e+01 1.000000000000e+00 
2.018339608528e+01 1.000000000000e+00 
2.018506332242e+01 1.000000000000e+00 
2.018673055956e+01 1.000000000000e+00 
2.116205544991e+01 1.000000000000e+00 
2.116355596333e+01 1.000000000000e+00 
2.116505647676e+01 1.000000000000e+00 
2.116655699018e+01 1.000000000000e+00 
2.116805750361e+01 1.000000000000e+00 
2.214404928880e+01 1.000000000000e+00 
2.214538307852e+01 1.000000000000e+00 
2.214671686823e+01 1.000000000000e+00 
2.214805065794e+01 1.000000000000e+00 
2.214938444765e+01 1.000000000000e+00 
2.312604312770e+01 1.000000000000e+00 
2.312721019370e+01 1.000000000000e+00 
2.312837725970e+01 1.000000000000e+00 
2.312954432570e+01 1.000000000000e+00 
2.313071139169e+01 1.000000000000e+00 
2.410803696660e+01 1.000000000000e+00 
2.410903730889e+01 1.000000000000e+00 
2.411003765117e+01 1.000000000000e+00 
2.411103799345e+01 1.000000000000e+00 
2.411203833574e+01 1.000000000000e+00 
2.509003080550e+01 1.000000000000e+00 
2.509086442407e+01 1.000000000000e+00 
2.509169804264e+01 1.000000000000e+00 
2.509253166121e+01 1.000000000000e+00 
2.509336527978e+01 1.000000000000e+00 
2.607202464440e+01 1.000000000000e+00 
2.607269153926e+01 1.000000000000e+00 
2.607335843411e+01 1.000000000000e+00 
2.607402532897e+01 1.000000000000e+00 
2.607469222382e+01 1.000000000000e+00 
2.705401848330e+01 1.000000000000e+00 
2.705451865444e+01 1.000000000000e+00 
2.705501882559e+01 1.000000000000e+00 
2.705551899673e+01 1.000000000000e+00 
2.705601916787e+01 1.000000000000e+00 
2.803601232220e+01 1.000000000000e+00 
2.803634576963e+01 1.000000000000e+00 
2.803667921706e+01 1.000000000000e+00 
2.803701266448e+01 1.000000000000e+00 
2.803734611191e+01 1.000000000000e+00 
2.901800616110e+01 1.000000000000e+00 
2.901817288481e+01 1.000000000000e+00 
2.901833960853e+01 1.000000000000e+00 
2.901850633224e+01 1.000000000000e+00 
2.901867305596e+01 1.000000000000e+00 
3.000000000000e+01 1.000000000000e+00 
3.000000000000e+01 1.000000000000e+00 
3.000000000000e+01 1.000000000000e+00 
3.000000000000e+01 1.000000000000e+00 
3.000000000000e+01 1.000000000000e+00 
3.002500000000e+01 1.000000000000e+00 
3.002500000000e+01 1.000000000000e+00 
3.002500000000e+01 1.000000000000e+00 
3.002500000000e+01 1.000000000000e+00 
3.002500000000e+01 1.000000000000e+00 
3.005000000000e+01 1.000000000000e+00 
3.005000000000e+01 1.000000000000e+00 
3.005000000000e+01 1.000000000000e+00 
3.005000000000e+01 1.000000000000e+00 
3.005000000000e+01 1.000000000000e+00 
3.007500000000e+01 1.000000000000e+00 
3.007500000000e+01 1.000000000000e+00 
3.007500000000e+01 1.000000000000e+00 
3.007500000000e+01 1.000000000000e+00 
3.007500000000e+01 1.000000000000e+00 
3.010000000000e+01 1.000000000000e+00 
3.010000000000e+01 1.000000000000e+00 
3.010000000000e+01 1.000000000000e+00 
3.010000000000e+01 1.000000000000e+00 
3.010000000000e+01 1.000000000000e+00 
3.012500000000e+01 1.000000000000e+00 
3.012500000000e+01 1.000000000000e+00 
3.012500000000e+01 1.000000000000e+00 
3.012500000000e+01 1.000000000000e+00 
3.012500000000e+01 1.000000000000e+00 
3.015000000000e+01 1.000000000000e+00 
3.015000000000e+01 1.000000000000e+00 
3.015000000000e+01 1.000000000000e+00 