 TITLE = "Profiles along polylines"
 VARIABLES = "DIST" "SATURATION1" 
 ZONE T="TIME=0.000000000000e+00"
1.874011978612e+01 1.000000000000e+00 
1.877011693407e+01 1.000000000000e+00 
1.880011408202e+01 1.000000000000e+00 
1.883011122997e+01 1.000000000000e+00 
1.886010837792e+01 1.000000000000e+00 
1.911544912659e+01 1.000000000000e+00 
1.914444636960e+01 1.000000000000e+00 
1.917344361262e+01 1.000000000000e+00 
1.920244085564e+01 1.000000000000e+00 
1.923143809866e+01 1.000000000000e+00 
1.949077846705e+01 1.000000000000e+00 
1.951877580514e+01 1.000000000000e+00 
1.954677314322e+01 1.000000000000e+00 
1.957477048131e+01 1.000000000000e+00 
1.960276781939e+01 1.000000000000e+00 
1.986610780751e+01 1.000000000000e+00 
1.989310524067e+01 1.000000000000e+00 
1.992010267382e+01 1.000000000000e+00 
1.994710010698e+01 1.000000000000e+00 
1.997409754013e+01 1.000000000000e+00 
2.024143714797e+01 1.000000000000e+00 
2.026743467620e+01 1.000000000000e+00 
2.029343220442e+01 1.000000000000e+00 
2.031942973264e+01 1.000000000000e+00 
2.034542726087e+01 1.000000000000e+00 
2.061676648844e+01 1.000000000000e+00 
2.064176411173e+01 1.000000000000e+00 
2.066676173502e+01 1.000000000000e+00 
2.069175935831e+01 1.000000000000e+00 
2.071675698160e+01 1.000000000000e+00 
2.099209582890e+01 1.000000000000e+00 
2.101609354726e+01 1.000000000000e+00 
2.104009126562e+01 1.000000000000e+00 
2.106408898398e+01 1.000000000000e+00 
2.108808670234e+01 1.000000000000e+00 
2.136742516936e+01 1.000000000000e+00 
2.139042298279e+01 1.000000000000e+00 
2.141342079622e+01 1.000000000000e+00 
2.143641860965e+01 1.000000000000e+00 
2.145941642307e+01 1.000000000000e+00 
2.174275450982e+01 1.000000000000e+00 
2.176475241832e+01 1.000000000000e+00 
2.178675032682e+01 1.000000000000e+00 
2.180874823531e+01 1.000000000000e+00 
2.183074614381e+01 1.000000000000e+00 
2.211808385029e+01 1.000000000000e+00 
2.213908185385e+01 1.000000000000e+00 
2.216007985742e+01 1.000000000000e+00 
2.218107786098e+01 1.000000000000e+00 
2.220207586455e+01 1.000000000000e+00 
2.249341319075e+01 1.000000000000e+00 
2.251341128938e+01 1.000000000000e+00 
2.253340938801e+01 1.000000000000e+00 
2.255340748665e+01 1.000000000000e+00 
2.257340558528e+01 1.000000000000e+00 
2.286874253121e+01 1.000000000000e+00 
2.288774072491e+01 1.000000000000e+00 
2.290673891861e+01 1.000000000000e+00 
2.292573711232e+01 1.000000000000e+00 
2.294473530602e+01 1.000000000000e+00 
2.324407187167e+01 1.000000000000e+00 
2.326207016044e+01 1.000000000000e+00 
2.328006844921e+01 1.000000000000e+00 
2.329806673798e+01 1.000000000000e+00 
2.331606502675e+01 1.000000000000e+00 
2.361940121214e+01 1.000000000000e+00 
2.363639959597e+01 1.000000000000e+00 
2.365339797981e+01 1.000000000000e+00 
2.367039636365e+01 1.000000000000e+00 
2.368739474749e+01 1.000000000000e+00 
2.399473055260e+01 1.000000000000e+00 
2.401072903150e+01 1.000000000000e+00 
2.402672751041e+01 1.000000000000e+00 
2.404272598932e+01 1.000000000000e+00 
2.405872446822e+01 1.000000000000e+00 
2.437005989306e+01 1.000000000000e+00 
2.438505846704e+01 1.000000000000e+00 
2.440005704101e+01 1.000000000000e+00 
2.441505561498e+01 1.000000000000e+00 
2.443005418896e+01 1.000000000000e+00 
2.474538923352e+01 1.000000000000e+00 
2.475938790257e+01 1.000000000000e+00 
2.477338657161e+01 1.000000000000e+00 
2.478738524065e+01 1.000000000000e+00 
2.480138390970e+01 1.000000000000e+00 
2.512071857399e+01 1.000000000000e+00 
2.513371733810e+01 1.000000000000e+00 
2.514671610221e+01 1.000000000000e+00 
2.515971486632e+01 1.000000000000e+00 
2.517271363043e+01 1.000000000000e+00 
2.549604791445e+01 1.000000000000e+00 
2.550804677363e+01 1.000000000000e+00 
2.552004563281e+01 1.000000000000e+00 
2.553204449199e+01 1.000000000000e+00 
2.554404335117e+01 1.000000000000e+00 
2.587137725491e+01 1.000000000000e+00 
2.588237620916e+01 1.000000000000e+00 
2.589337516341e+01 1.000000000000e+00 
2.590437411766e+01 1.000000000000e+00 
2.591537307190e+01 1.000000000000e+00 
2.624670659537e+01 1.000000000000e+00 
2.625670564469e+01 1.000000000000e+00 
2.626670469401e+01 1.000000000000e+00 
2.627670374332e+01 1.000000000000e+00 
2.628670279264e+01 1.000000000000e+00 
2.662203593584e+01 1.000000000000e+00 
2.663103508022e+01 1.000000000000e+00 
2.664003422461e+01 1.000000000000e+00 
2.664903336899e+01 1.000000000000e+00 
2.665803251338e+01 1.000000000000e+00 
2.699736527630e+01 1.000000000000e+00 
2.700536451575e+01 1.000000000000e+00 
2.701336375521e+01 1.000000000000e+00 
2.702136299466e+01 1.000000000000e+00 
2.702936223411e+01 1.000000000000e+00 
2.737269461676e+01 1.000000000000e+00 
2.737969395128e+01 1.000000000000e+00 
2.738669328580e+01 1.000000000000e+00 
2.739369262033e+01 1.000000000000e+00 
2.740069195485e+01 1.000000000000e+00 
2.774802395722e+01 1.000000000000e+00 
2.775402338681e+01 1.000000000000e+00 
2.776002281640e+01 1.000000000000e+00 
2.776602224599e+01 1.000000000000e+00 
2.777202167558e+01 1.000000000000e+00 
2.812335329769e+01 1.000000000000e+00 
2.812835282235e+01 1.000000000000e+00 
2.813335234700e+01 1.000000000000e+00 
2.813835187166e+01 1.000000000000e+00 
2.814335139632e+01 1.000000000000e+00 
2.849868263815e+01 1.000000000000e+00 
2.850268225788e+01 1.000000000000e+00 
2.850668187760e+01 1.000000000000e+00 
2.851068149733e+01 1.000000000000e+00 
2.851468111706e+01 1.000000000000e+00 
2.887401197861e+01 1.000000000000e+00 
2.887701169341e+01 1.000000000000e+00 
2.888001140820e+01 1.000000000000e+00 
2.888301112300e+01 1.000000000000e+00 
2.888601083779e+01 1.000000000000e+00 
2.924934131907e+01 1.000000000000e+00 
2.925134112894e+01 1.000000000000e+00 
2.925334093880e+01 1.000000000000e+00 
2.925534074866e+01 1.000000000000e+00 
2.925734055853e+01 1.000000000000e+00 
2.962467065954e+01 1.000000000000e+00 
2.962567056447e+01 1.000000000000e+00 
2.962667046940e+01 1.000000000000e+00 
2.962767037433e+01 1.000000000000e+00 
2.962867027926e+01 1.000000000000e+00 
3.000000000000e+01 1.000000000000e+00 
3.000000000000e+01 1.000000000000e+00 
3.000000000000e+01 1.000000000000e+00 
3.000000000000e+01 1.000000000000e+00 
3.000000000000e+01 1.000000000000e+00 
3.002500000000e+01 9.876207709446e-01 
3.002500000000e+01 9.876207709446e-01 
3.002500000000e+01 9.876207709446e-01 
3.002500000000e+01 9.876207709446e-01 
3.002500000000e+01 9.876207709446e-01 
3.005000000000e+01 9.697756439369e-01 
3.005000000000e+01 9.697756439369e-01 
3.005000000000e+01 9.697756439369e-01 
3.005000000000e+01 9.697756439369e-01 
3.005000000000e+01 9.697756439369e-01 
3.007500000000e+01 9.507134089444e-01 
3.007500000000e+01 9.507134089444e-01 
3.007500000000e+01 9.507134089444e-01 
3.007500000000e+01 9.507134089444e-01 
3.007500000000e+01 9.507134089444e-01 
3.010000000000e+01 9.315621650298e-01 
3.010000000000e+01 9.315621650298e-01 
3.010000000000e+01 9.315621650298e-01 
3.010000000000e+01 9.315621650298e-01 
3.010000000000e+01 9.315621650298e-01 
3.012500000000e+01 9.128758324042e-01 
3.012500000000e+01 9.128758324042e-01 
3.012500000000e+01 9.128758324042e-01 
3.012500000000e+01 9.128758324042e-01 
3.012500000000e+01 9.128758324042e-01 
3.015000000000e+01 8.949248043380e-01 
3.015000000000e+01 8.949248043380e-01 
3.015000000000e+01 8.949248043380e-01 
3.015000000000e+01 8.949248043380e-01 
3.015000000000e+01 8.949248043380e-01 
3.017500000000e+01 8.778290027968e-01 
3.017500000000e+01 8.778290027968e-01 
3.017500000000e+01 8.778290027968e-01 
3.017500000000e+01 8.778290027968e-01 
3.017500000000e+01 8.778290027968e-01 
3.020000000000e+01 8.616255702900e-01 
3.020000000000e+01 8.616255702900e-01 
3.020000000000e+01 8.616255702900e-01 
3.020000000000e+01 8.616255702900e-01 
3.020000000000e+01 8.616255702900e-01 
3.022500000000e+01 8.463059583920e-01 
3.022500000000e+01 8.463059583920e-01 
3.022500000000e+01 8.463059583920e-01 
3.022500000000e+01 8.463059583920e-01 
3.022500000000e+01 8.463059583920e-01 
3.025000000000e+01 8.318370344398e-01 
3.025000000000e+01 8.318370344398e-01 
3.025000000000e+01 8.318370344398e-01 
3.025000000000e+01 8.318370344398e-01 
3.025000000000e+01 8.318370344398e-01 
3.027500000000e+01 8.181733156316e-01 
3.027500000000e+01 8.181733156316e-01 
3.027500000000e+01 8.181733156316e-01 
3.027500000000e+01 8.181733156316e-01 
3.027500000000e+01 8.181733156316e-01 
3.030000000000e+01 8.052640970350e-01 
3.030000000000e+01 8.052640970350e-01 
3.030000000000e+01 8.052640970350e-01 
3.030000000000e+01 8.052640970350e-01 
3.030000000000e+01 8.052640970350e-01 
3.032500000000e+01 7.930575753856e-01 
3.032500000000e+01 7.930575753856e-01 
3.032500000000e+01 7.930575753856e-01 
3.032500000000e+01 7.930575753856e-01 
3.032500000000e+01 7.930575753856e-01 
3.035000000000e+01 7.815031815402e-01 
3.035000000000e+01 7.815031815402e-01 
3.035000000000e+01 7.815031815402e-01 
3.035000000000e+01 7.815031815402e-01 
3.035000000000e+01 7.815031815402e-01 
3.037500000000e+01 7.705528376764e-01 
3.037500000000e+01 7.705528376764e-01 
3.037500000000e+01 7.705528376764e-01 
3.037500000000e+01 7.705528376764e-01 
3.037500000000e+01 7.705528376764e-01 
3.040000000000e+01 7.601615689674e-01 
3.040000000000e+01 7.601615689674e-01 
3.040000000000e+01 7.601615689674e-01 
3.040000000000e+01 7.601615689674e-01 
3.040000000000e+01 7.601615689674e-01 
3.042500000000e+01 7.502877306002e-01 
3.042500000000e+01 7.502877306002e-01 
3.042500000000e+01 7.502877306002e-01 
3.042500000000e+01 7.502877306002e-01 
3.042500000000e+01 7.502877306002e-01 
3.045000000000e+01 7.408930096824e-01 
3.045000000000e+01 7.408930096824e-01 
3.045000000000e+01 7.408930096824e-01 
3.045000000000e+01 7.408930096824e-01 
3.045000000000e+01 7.408930096824e-01 
3.047500000000e+01 7.319422999608e-01 
3.047500000000e+01 7.319422999608e-01 
3.047500000000e+01 7.319422999608e-01 
3.047500000000e+01 7.319422999608e-01 
3.047500000000e+01 7.319422999608e-01 
3.050000000000e+01 7.234035093991e-01 
3.050000000000e+01 7.234035093991e-01 
3.050000000000e+01 7.234035093991e-01 
3.050000000000e+01 7.234035093991e-01 
3.050000000000e+01 7.234035093991e-01 
3.052500000000e+01 7.152473371957e-01 
3.052500000000e+01 7.152473371957e-01 
3.052500000000e+01 7.152473371957e-01 
3.052500000000e+01 7.152473371957e-01 
3.052500000000e+01 7.152473371957e-01 
3.055000000000e+01 7.074470422112e-01 
3.055000000000e+01 7.074470422112e-01 
3.055000000000e+01 7.074470422112e-01 
3.055000000000e+01 7.074470422112e-01 
3.055000000000e+01 7.074470422112e-01 
3.057500000000e+01 6.999782156504e-01 
3.057500000000e+01 6.999782156504e-01 
3.057500000000e+01 6.999782156504e-01 
3.057500000000e+01 6.999782156504e-01 
3.057500000000e+01 6.999782156504e-01 
3.060000000000e+01 6.928185651596e-01 
3.060000000000e+01 6.928185651596e-01 
3.060000000000e+01 6.928185651596e-01 
3.060000000000e+01 6.928185651596e-01 
3.060000000000e+01 6.928185651596e-01 
3.062500000000e+01 6.859477139679e-01 
3.062500000000e+01 6.859477139679e-01 
3.062500000000e+01 6.859477139679e-01 
3.062500000000e+01 6.859477139679e-01 
3.062500000000e+01 6.859477139679e-01 
3.065000000000e+01 6.793470165436e-01 
3.065000000000e+01 6.793470165436e-01 
3.065000000000e+01 6.793470165436e-01 
3.065000000000e+01 6.793470165436e-01 
3.065000000000e+01 6.793470165436e-01 
3.067500000000e+01 6.729993909360e-01 
3.067500000000e+01 6.729993909360e-01 
3.067500000000e+01 6.729993909360e-01 
3.067500000000e+01 6.729993909360e-01 
3.067500000000e+01 6.729993909360e-01 
3.070000000000e+01 6.668891672206e-01 
3.070000000000e+01 6.668891672206e-01 
3.070000000000e+01 6.668891672206e-01 
3.070000000000e+01 6.668891672206e-01 
3.070000000000e+01 6.668891672206e-01 
3.072500000000e+01 6.610019510587e-01 
3.072500000000e+01 6.610019510587e-01 
3.072500000000e+01 6.610019510587e-01 
3.072500000000e+01 6.610019510587e-01 
3.072500000000e+01 6.610019510587e-01 
3.075000000000e+01 6.553245011865e-01 
3.075000000000e+01 6.553245011865e-01 
3.075000000000e+01 6.553245011865e-01 
3.075000000000e+01 6.553245011865e-01 
3.075000000000e+01 6.553245011865e-01 
3.077500000000e+01 6.498446195878e-01 
3.077500000000e+01 6.498446195878e-01 
3.077500000000e+01 6.498446195878e-01 
3.077500000000e+01 6.498446195878e-01 
3.077500000000e+01 6.498446195878e-01 
3.080000000000e+01 6.445510531188e-01 
3.080000000000e+01 6.445510531188e-01 
3.080000000000e+01 6.445510531188e-01 
3.080000000000e+01 6.445510531188e-01 
3.080000000000e+01 6.445510531188e-01 
3.082500000000e+01 6.394334054150e-01 
3.082500000000e+01 6.394334054150e-01 
3.082500000000e+01 6.394334054150e-01 
3.082500000000e+01 6.394334054150e-01 
3.082500000000e+01 6.394334054150e-01 
3.085000000000e+01 6.344820579917e-01 
3.085000000000e+01 6.344820579917e-01 
3.085000000000e+01 6.344820579917e-01 
3.085000000000e+01 6.344820579917e-01 
3.085000000000e+01 6.344820579917e-01 
3.087500000000e+01 6.296880995462e-01 
3.087500000000e+01 6.296880995462e-01 
3.087500000000e+01 6.296880995462e-01 
3.087500000000e+01 6.296880995462e-01 
3.087500000000e+01 6.296880995462e-01 
3.090000000000e+01 6.250432625624e-01 
3.090000000000e+01 6.250432625624e-01 
3.090000000000e+01 6.250432625624e-01 
3.090000000000e+01 6.250432625624e-01 
3.090000000000e+01 6.250432625624e-01 
3.092500000000e+01 6.205398664126e-01 
3.092500000000e+01 6.205398664126e-01 
3.092500000000e+01 6.205398664126e-01 
3.092500000000e+01 6.205398664126e-01 
3.092500000000e+01 6.205398664126e-01 
3.095000000000e+01 6.161707662369e-01 
3.095000000000e+01 6.161707662369e-01 
3.095000000000e+01 6.161707662369e-01 
3.095000000000e+01 6.161707662369e-01 
3.095000000000e+01 6.161707662369e-01 
3.097500000000e+01 6.119293069613e-01 
3.097500000000e+01 6.119293069613e-01 
3.097500000000e+01 6.119293069613e-01 
3.097500000000e+01 6.119293069613e-01 
3.097500000000e+01 6.119293069613e-01 
3.100000000000e+01 6.078092818871e-01 
3.100000000000e+01 6.078092818871e-01 
3.100000000000e+01 6.078092818871e-01 
3.100000000000e+01 6.078092818871e-01 
3.100000000000e+01 6.078092818871e-01 
3.102500000000e+01 6.038048953494e-01 
3.102500000000e+01 6.038048953494e-01 
3.102500000000e+01 6.038048953494e-01 
3.102500000000e+01 6.038048953494e-01 
3.102500000000e+01 6.038048953494e-01 
3.105000000000e+01 5.999107290013e-01 
3.105000000000e+01 5.999107290013e-01 
3.105000000000e+01 5.999107290013e-01 
3.105000000000e+01 5.999107290013e-01 
3.105000000000e+01 5.999107290013e-01 
3.107500000000e+01 5.961217113309e-01 
3.107500000000e+01 5.961217113309e-01 
3.107500000000e+01 5.961217113309e-01 
3.107500000000e+01 5.961217113309e-01 
3.107500000000e+01 5.961217113309e-01 
3.110000000000e+01 5.924330900627e-01 
3.110000000000e+01 5.924330900627e-01 
3.110000000000e+01 5.924330900627e-01 
3.110000000000e+01 5.924330900627e-01 
3.110000000000e+01 5.924330900627e-01 
3.112500000000e+01 5.888404071392e-01 
3.112500000000e+01 5.888404071392e-01 
3.112500000000e+01 5.888404071392e-01 
3.112500000000e+01 5.888404071392e-01 
3.112500000000e+01 5.888404071392e-01 
3.115000000000e+01 5.853394760078e-01 
3.115000000000e+01 5.853394760078e-01 
3.115000000000e+01 5.853394760078e-01 
3.115000000000e+01 5.853394760078e-01 
3.115000000000e+01 5.853394760078e-01 
3.117500000000e+01 5.819263609758e-01 
3.117500000000e+01 5.819263609758e-01 
3.117500000000e+01 5.819263609758e-01 
3.117500000000e+01 5.819263609758e-01 
3.117500000000e+01 5.819263609758e-01 
3.120000000000e+01 5.785973584173e-01 
3.120000000000e+01 5.785973584173e-01 
3.120000000000e+01 5.785973584173e-01 
3.120000000000e+01 5.785973584173e-01 
3.120000000000e+01 5.785973584173e-01 
3.122500000000e+01 5.753489796460e-01 
3.122500000000e+01 5.753489796460e-01 
3.122500000000e+01 5.753489796460e-01 
3.122500000000e+01 5.753489796460e-01 
3.122500000000e+01 5.753489796460e-01 
3.125000000000e+01 5.721779352840e-01 
3.125000000000e+01 5.721779352840e-01 
3.125000000000e+01 5.721779352840e-01 
3.125000000000e+01 5.721779352840e-01 
3.125000000000e+01 5.721779352840e-01 
3.127500000000e+01 5.690811209785e-01 
3.127500000000e+01 5.690811209785e-01 
3.127500000000e+01 5.690811209785e-01 
3.127500000000e+01 5.690811209785e-01 
3.127500000000e+01 5.690811209785e-01 
3.130000000000e+01 5.660556043336e-01 
3.130000000000e+01 5.660556043336e-01 
3.130000000000e+01 5.660556043336e-01 
3.130000000000e+01 5.660556043336e-01 
3.130000000000e+01 5.660556043336e-01 
3.132500000000e+01 5.630986129391e-01 
3.132500000000e+01 5.630986129391e-01 
3.132500000000e+01 5.630986129391e-01 
3.132500000000e+01 5.630986129391e-01 
3.132500000000e+01 5.630986129391e-01 
3.135000000000e+01 5.602075233904e-01 
3.135000000000e+01 5.602075233904e-01 
3.135000000000e+01 5.602075233904e-01 
3.135000000000e+01 5.602075233904e-01 
3.135000000000e+01 5.602075233904e-01 
3.137500000000e+01 5.573798512060e-01 
3.137500000000e+01 5.573798512060e-01 
3.137500000000e+01 5.573798512060e-01 
3.137500000000e+01 5.573798512060e-01 
3.137500000000e+01 5.573798512060e-01 
3.140000000000e+01 5.546132415581e-01 
3.140000000000e+01 5.546132415581e-01 
3.140000000000e+01 5.546132415581e-01 
3.140000000000e+01 5.546132415581e-01 
3.140000000000e+01 5.546132415581e-01 
3.142500000000e+01 5.519054607414e-01 
3.142500000000e+01 5.519054607414e-01 
3.142500000000e+01 5.519054607414e-01 
3.142500000000e+01 5.519054607414e-01 
3.142500000000e+01 5.519054607414e-01 
3.145000000000e+01 5.492543883110e-01 
3.145000000000e+01 5.492543883110e-01 
3.145000000000e+01 5.492543883110e-01 
3.145000000000e+01 5.492543883110e-01 
3.145000000000e+01 5.492543883110e-01 
3.147500000000e+01 5.466580098318e-01 
3.147500000000e+01 5.466580098318e-01 
3.147500000000e+01 5.466580098318e-01 
3.147500000000e+01 5.466580098318e-01 
3.147500000000e+01 5.466580098318e-01 
3.150000000000e+01 5.441144101810e-01 
3.150000000000e+01 5.441144101810e-01 
3.150000000000e+01 5.441144101810e-01 
3.150000000000e+01 5.441144101810e-01 
3.150000000000e+01 5.441144101810e-01 
3.152500000000e+01 5.416217673588e-01 
3.152500000000e+01 5.416217673588e-01 
3.152500000000e+01 5.416217673588e-01 
3.152500000000e+01 5.416217673588e-01 
3.152500000000e+01 5.416217673588e-01 
3.155000000000e+01 5.391783467591e-01 
3.155000000000e+01 5.391783467591e-01 
3.155000000000e+01 5.391783467591e-01 
3.155000000000e+01 5.391783467591e-01 
3.155000000000e+01 5.391783467591e-01 
3.157500000000e+01 5.367824958643e-01 
3.157500000000e+01 5.367824958643e-01 
3.157500000000e+01 5.367824958643e-01 
3.157500000000e+01 5.367824958643e-01 
3.157500000000e+01 5.367824958643e-01 
3.160000000000e+01 5.344326393247e-01 
3.160000000000e+01 5.344326393247e-01 
3.160000000000e+01 5.344326393247e-01 
3.160000000000e+01 5.344326393247e-01 
3.160000000000e+01 5.344326393247e-01 
3.162500000000e+01 5.321272743928e-01 
3.162500000000e+01 5.321272743928e-01 
3.162500000000e+01 5.321272743928e-01 
3.162500000000e+01 5.321272743928e-01 
3.162500000000e+01 5.321272743928e-01 
3.165000000000e+01 5.298649666811e-01 
3.165000000000e+01 5.298649666811e-01 
3.165000000000e+01 5.298649666811e-01 
3.165000000000e+01 5.298649666811e-01 
3.165000000000e+01 5.298649666811e-01 
3.167500000000e+01 5.276443462180e-01 
3.167500000000e+01 5.276443462180e-01 
3.167500000000e+01 5.276443462180e-01 
3.167500000000e+01 5.276443462180e-01 
3.167500000000e+01 5.276443462180e-01 
3.170000000000e+01 5.254641037767e-01 
3.170000000000e+01 5.254641037767e-01 
3.170000000000e+01 5.254641037767e-01 
3.170000000000e+01 5.254641037767e-01 
3.170000000000e+01 5.254641037767e-01 
3.172500000000e+01 5.233229874560e-01 
3.172500000000e+01 5.233229874560e-01 
3.172500000000e+01 5.233229874560e-01 
3.172500000000e+01 5.233229874560e-01 
3.172500000000e+01 5.233229874560e-01 
3.175000000000e+01 5.212197994921e-01 
3.175000000000e+01 5.212197994921e-01 
3.175000000000e+01 5.212197994921e-01 
3.175000000000e+01 5.212197994921e-01 
3.175000000000e+01 5.212197994921e-01 
3.177500000000e+01 5.191533932842e-01 
3.177500000000e+01 5.191533932842e-01 
3.177500000000e+01 5.191533932842e-01 
3.177500000000e+01 5.191533932842e-01 
3.177500000000e+01 5.191533932842e-01 
3.180000000000e+01 5.171226706164e-01 
3.180000000000e+01 5.171226706164e-01 
3.180000000000e+01 5.171226706164e-01 
3.180000000000e+01 5.171226706164e-01 
3.180000000000e+01 5.171226706164e-01 
3.182500000000e+01 5.151265790614e-01 
3.182500000000e+01 5.151265790614e-01 
3.182500000000e+01 5.151265790614e-01 
3.182500000000e+01 5.151265790614e-01 
3.182500000000e+01 5.151265790614e-01 
3.185000000000e+01 5.131641095520e-01 
3.185000000000e+01 5.131641095520e-01 
3.185000000000e+01 5.131641095520e-01 
3.185000000000e+01 5.131641095520e-01 
3.185000000000e+01 5.131641095520e-01 
3.187500000000e+01 5.112342941078e-01 
3.187500000000e+01 5.112342941078e-01 
3.187500000000e+01 5.112342941078e-01 
3.187500000000e+01 5.112342941078e-01 
3.187500000000e+01 5.112342941078e-01 
3.190000000000e+01 5.093362037054e-01 
3.190000000000e+01 5.093362037054e-01 
3.190000000000e+01 5.093362037054e-01 
3.190000000000e+01 5.093362037054e-01 
3.190000000000e+01 5.093362037054e-01 
3.192500000000e+01 5.074689462822e-01 
3.192500000000e+01 5.074689462822e-01 
3.192500000000e+01 5.074689462822e-01 
3.192500000000e+01 5.074689462822e-01 
3.192500000000e+01 5.074689462822e-01 
3.195000000000e+01 5.056316648631e-01 
3.195000000000e+01 5.056316648631e-01 
3.195000000000e+01 5.056316648631e-01 
3.195000000000e+01 5.056316648631e-01 
3.195000000000e+01 5.056316648631e-01 
3.197500000000e+01 5.038235358020e-01 
3.197500000000e+01 5.038235358020e-01 
3.197500000000e+01 5.038235358020e-01 
3.197500000000e+01 5.038235358020e-01 
3.197500000000e+01 5.038235358020e-01 
3.200000000000e+01 4.942973554751e-01 
3.200000000000e+01 4.943251607688e-01 
3.200000000000e+01 4.943390619398e-01 
3.200000000000e+01 4.943112586097e-01 
3.200000000000e+01 4.943529621100e-01 
3.634802395722e+01 3.582956831457e-01 
3.635402338681e+01 3.581962623120e-01 
3.636002281640e+01 3.580969652876e-01 
3.636602224599e+01 3.579977918076e-01 
3.637202167558e+01 3.578987416076e-01 
4.069604791445e+01 3.129494896959e-01 
4.070804677363e+01 3.128534029183e-01 
4.072004563281e+01 3.127574592740e-01 
4.073204449199e+01 3.126616583913e-01 
4.074404335117e+01 3.125659998998e-01 
4.504407187167e+01 2.859278225345e-01 
4.506207016044e+01 2.858363496127e-01 
4.508006844921e+01 2.857450219133e-01 
4.509806673798e+01 2.856538390338e-01 
4.511606502675e+01 2.855628005730e-01 
4.939209582890e+01 2.674915507449e-01 
4.941609354726e+01 2.674045295135e-01 
4.944009126562e+01 2.673176512284e-01 
4.946408898398e+01 2.672309154794e-01 
4.948808670234e+01 2.671443218580e-01 
5.374011978612e+01 2.537850952700e-01 
5.377011693407e+01 2.537019771383e-01 
5.380011408202e+01 2.536189984770e-01 
5.383011122997e+01 2.535361588772e-01 
5.386010837792e+01 2.534534579317e-01 
 TITLE = "Profiles along polylines"
 VARIABLES = "DIST" "SATURATION1" 
 ZONE T="TIME=1.797693134862e+308"
1.874011978612e+01 1.000000000000e+00 
1.877011693407e+01 1.000000000000e+00 
1.880011408202e+01 1.000000000000e+00 
1.883011122997e+01 1.000000000000e+00 
1.886010837792e+01 1.000000000000e+00 
1.911544912659e+01 1.000000000000e+00 
1.914444636960e+01 1.000000000000e+00 
1.917344361262e+01 1.000000000000e+00 
1.920244085564e+01 1.000000000000e+00 
1.923143809866e+01 1.000000000000e+00 
1.949077846705e+01 1.000000000000e+00 
1.951877580514e+01 1.000000000000e+00 
1.954677314322e+01 1.000000000000e+00 
1.957477048131e+01 1.000000000000e+00 
1.960276781939e+01 1.000000000000e+00 
1.986610780751e+01 1.000000000000e+00 
1.989310524067e+01 1.000000000000e+00 
1.992010267382e+01 1.000000000000e+00 
1.994710010698e+01 1.000000000000e+00 
1.997409754013e+01 1.000000000000e+00 
2.024143714797e+01 1.000000000000e+00 
2.026743467620e+01 1.000000000000e+00 
2.029343220442e+01 1.000000000000e+00 
2.031942973264e+01 1.000000000000e+00 
2.034542726087e+01 1.000000000000e+00 
2.061676648844e+01 1.000000000000e+00 
2.064176411173e+01 1.000000000000e+00 
2.066676173502e+01 1.000000000000e+00 
2.069175935831e+01 1.000000000000e+00 
2.071675698160e+01 1.000000000000e+00 
2.099209582890e+01 1.000000000000e+00 
2.101609354726e+01 1.000000000000e+00 
2.104009126562e+01 1.000000000000e+00 
2.106408898398e+01 1.000000000000e+00 
2.108808670234e+01 1.000000000000e+00 
2.136742516936e+01 1.000000000000e+00 
2.139042298279e+01 1.000000000000e+00 
2.141342079622e+01 1.000000000000e+00 
2.143641860965e+01 1.000000000000e+00 
2.145941642307e+01 1.000000000000e+00 
2.174275450982e+01 1.000000000000e+00 
2.176475241832e+01 1.000000000000e+00 
2.178675032682e+01 1.000000000000e+00 
2.180874823531e+01 1.000000000000e+00 
2.183074614381e+01 1.000000000000e+00 
2.211808385029e+01 1.000000000000e+00 
2.213908185385e+01 1.000000000000e+00 
2.216007985742e+01 1.000000000000e+00 
2.218107786098e+01 1.000000000000e+00 
2.220207586455e+01 1.000000000000e+00 
2.249341319075e+01 1.000000000000e+00 
2.251341128938e+01 1.000000000000e+00 
2.253340938801e+01 1.000000000000e+00 
2.255340748665e+01 1.000000000000e+00 
2.257340558528e+01 1.000000000000e+00 
2.286874253121e+01 1.000000000000e+00 
2.288774072491e+01 1.000000000000e+00 
2.290673891861e+01 1.000000000000e+00 
2.292573711232e+01 1.000000000000e+00 
2.294473530602e+01 1.000000000000e+00 
2.324407187167e+01 1.000000000000e+00 
2.326207016044e+01 1.000000000000e+00 
2.328006844921e+01 1.000000000000e+00 
2.329806673798e+01 1.000000000000e+00 
2.331606502675e+01 1.000000000000e+00 
2.361940121214e+01 1.000000000000e+00 
2.363639959597e+01 1.000000000000e+00 
2.365339797981e+01 1.000000000000e+00 
2.367039636365e+01 1.000000000000e+00 
2.368739474749e+01 1.000000000000e+00 
2.399473055260e+01 1.000000000000e+00 
2.401072903150e+01 1.000000000000e+00 
2.402672751041e+01 1.000000000000e+00 
2.404272598932e+01 1.000000000000e+00 
2.405872446822e+01 1.000000000000e+00 
2.437005989306e+01 1.000000000000e+00 
2.438505846704e+01 1.000000000000e+00 
2.440005704101e+01 1.000000000000e+00 
2.441505561498e+01 1.000000000000e+00 
2.443005418896e+01 1.000000000000e+00 
2.474538923352e+01 1.000000000000e+00 
2.475938790257e+01 1.000000000000e+00 
2.477338657161e+01 1.000000000000e+00 
2.478738524065e+01 1.000000000000e+00 
2.480138390970e+01 1.000000000000e+00 
2.512071857399e+01 1.000000000000e+00 
2.513371733810e+01 1.000000000000e+00 
2.514671610221e+01 1.000000000000e+00 
2.515971486632e+01 1.000000000000e+00 
2.517271363043e+01 1.000000000000e+00 
2.549604791445e+01 1.000000000000e+00 
2.550804677363e+01 1.000000000000e+00 
2.552004563281e+01 1.000000000000e+00 
2.553204449199e+01 1.000000000000e+00 
2.554404335117e+01 1.000000000000e+00 
2.587137725491e+01 1.000000000000e+00 
2.588237620916e+01 1.000000000000e+00 
2.589337516341e+01 1.000000000000e+00 
2.590437411766e+01 1.000000000000e+00 
2.591537307190e+01 1.000000000000e+00 
2.624670659537e+01 1.000000000000e+00 
2.625670564469e+01 1.000000000000e+00 
2.626670469401e+01 1.000000000000e+00 
2.627670374332e+01 1.000000000000e+00 
2.628670279264e+01 1.000000000000e+00 
2.662203593584e+01 1.000000000000e+00 
2.663103508022e+01 1.000000000000e+00 
2.664003422461e+01 1.000000000000e+00 
2.664903336899e+01 1.000000000000e+00 
2.665803251338e+01 1.000000000000e+00 
2.699736527630e+01 1.000000000000e+00 
2.700536451575e+01 1.000000000000e+00 
2.701336375521e+01 1.000000000000e+00 
2.702136299466e+01 1.000000000000e+00 
2.702936223411e+01 1.000000000000e+00 
2.737269461676e+01 1.000000000000e+00 
2.737969395128e+01 1.000000000000e+00 
2.738669328580e+01 1.000000000000e+00 
2.739369262033e+01 1.000000000000e+00 
2.740069195485e+01 1.000000000000e+00 
2.774802395722e+01 1.000000000000e+00 
2.775402338681e+01 1.000000000000e+00 
2.776002281640e+01 1.000000000000e+00 
2.776602224599e+01 1.000000000000e+00 
2.777202167558e+01 1.000000000000e+00 
2.812335329769e+01 1.000000000000e+00 
2.812835282235e+01 1.000000000000e+00 
2.813335234700e+01 1.000000000000e+00 
2.813835187166e+01 1.000000000000e+00 
2.814335139632e+01 1.000000000000e+00 
2.849868263815e+01 1.000000000000e+00 
2.850268225788e+01 1.000000000000e+00 
2.850668187760e+01 1.000000000000e+00 
2.851068149733e+01 1.000000000000e+00 
2.851468111706e+01 1.000000000000e+00 
2.887401197861e+01 1.000000000000e+00 
2.887701169341e+01 1.000000000000e+00 
2.888001140820e+01 1.000000000000e+00 
2.888301112300e+01 1.000000000000e+00 
2.888601083779e+01 1.000000000000e+00 
2.924934131907e+01 1.000000000000e+00 
2.925134112894e+01 1.000000000000e+00 
2.925334093880e+01 1.000000000000e+00 
2.925534074866e+01 1.000000000000e+00 
2.925734055853e+01 1.000000000000e+00 
2.962467065954e+01 1.000000000000e+00 
2.962567056447e+01 1.000000000000e+00 
2.962667046940e+01 1.000000000000e+00 
2.962767037433e+01 1.000000000000e+00 
2.962867027926e+01 1.000000000000e+00 
3.000000000000e+01 1.000000000000e+00 
3.000000000000e+01 1.000000000000e+00 
3.000000000000e+01 1.000000000000e+00 
3.000000000000e+01 1.000000000000e+00 
3.000000000000e+01 1.000000000000e+00 
3.002500000000e+01 1.000000000000e+00 
3.002500000000e+01 1.000000000000e+00 
3.002500000000e+01 1.000000000000e+00 
3.002500000000e+01 1.000000000000e+00 
3.002500000000e+01 1.000000000000e+00 
3.005000000000e+01 1.000000000000e+00 
3.005000000000e+01 1.000000000000e+00 
3.005000000000e+01 1.000000000000e+00 
3.005000000000e+01 1.000000000000e+00 
3.005000000000e+01 1.000000000000e+00 
3.007500000000e+01 1.000000000000e+00 
3.007500000000e+01 1.000000000000e+00 
3.007500000000e+01 1.000000000000e+00 
3.007500000000e+01 1.000000000000e+00 
3.007500000000e+01 1.000000000000e+00 
3.010000000000e+01 1.000000000000e+00 
3.010000000000e+01 1.000000000000e+00 
3.010000000000e+01 1.000000000000e+00 
3.010000000000e+01 1.000000000000e+00 
3.010000000000e+01 1.000000000000e+00 
3.012500000000e+01 1.000000000000e+00 
3.012500000000e+01 1.000000000000e+00 
3.012500000000e+01 1.000000000000e+00 
3.012500000000e+01 1.000000000000e+00 
3.012500000000e+01 1.000000000000e+00 
3.015000000000e+01 1.000000000000e+00 
3.015000000000e+01 1.000000000000e+00 
3.015000000000e+01 1.000000000000e+00 