 TITLE = "Profiles along polylines"
 VARIABLES = "DIST" "SATURATION1" 
 ZONE T="TIME=0.000000000000e+00"
1.048686544916e+01 1.000000000000e+00 
1.054677898893e+01 1.000000000000e+00 
1.060669252871e+01 1.000000000000e+00 
1.066660606848e+01 1.000000000000e+00 
1.072651960825e+01 1.000000000000e+00 
1.113730326752e+01 1.000000000000e+00 
1.119521968930e+01 1.000000000000e+00 
1.125313611108e+01 1.000000000000e+00 
1.131105253286e+01 1.000000000000e+00 
1.136896895465e+01 1.000000000000e+00 
1.178774108588e+01 1.000000000000e+00 
1.184366038967e+01 1.000000000000e+00 
1.189957969346e+01 1.000000000000e+00 
1.195549899725e+01 1.000000000000e+00 
1.201141830104e+01 1.000000000000e+00 
1.243817890424e+01 1.000000000000e+00 
1.249210109004e+01 1.000000000000e+00 
1.254602327584e+01 1.000000000000e+00 
1.259994546163e+01 1.000000000000e+00 
1.265386764743e+01 1.000000000000e+00 
1.308861672260e+01 1.000000000000e+00 
1.314054179041e+01 1.000000000000e+00 
1.319246685821e+01 1.000000000000e+00 
1.324439192602e+01 1.000000000000e+00 
1.329631699382e+01 1.000000000000e+00 
1.373905454096e+01 1.000000000000e+00 
1.378898249078e+01 1.000000000000e+00 
1.383891044059e+01 1.000000000000e+00 
1.388883839040e+01 1.000000000000e+00 
1.393876634021e+01 1.000000000000e+00 
1.438949235933e+01 1.000000000000e+00 
1.443742319114e+01 1.000000000000e+00 
1.448535402296e+01 1.000000000000e+00 
1.453328485478e+01 1.000000000000e+00 
1.458121568660e+01 1.000000000000e+00 
1.503993017769e+01 1.000000000000e+00 
1.508586389151e+01 1.000000000000e+00 
1.513179760534e+01 1.000000000000e+00 
1.517773131917e+01 1.000000000000e+00 
1.522366503299e+01 1.000000000000e+00 
1.569036799605e+01 1.000000000000e+00 
1.573430459188e+01 1.000000000000e+00 
1.577824118772e+01 1.000000000000e+00 
1.582217778355e+01 1.000000000000e+00 
1.586611437939e+01 1.000000000000e+00 
1.634080581441e+01 1.000000000000e+00 
1.638274529225e+01 1.000000000000e+00 
1.642468477009e+01 1.000000000000e+00 
1.646662424793e+01 1.000000000000e+00 
1.650856372578e+01 1.000000000000e+00 
1.699124363277e+01 1.000000000000e+00 
1.703118599262e+01 1.000000000000e+00 
1.707112835247e+01 1.000000000000e+00 
1.711107071232e+01 1.000000000000e+00 
1.715101307217e+01 1.000000000000e+00 
1.764168145113e+01 1.000000000000e+00 
1.767962669298e+01 1.000000000000e+00 
1.771757193484e+01 1.000000000000e+00 
1.775551717670e+01 1.000000000000e+00 
1.779346241856e+01 1.000000000000e+00 
1.829211926949e+01 1.000000000000e+00 
1.832806739335e+01 1.000000000000e+00 
1.836401551722e+01 1.000000000000e+00 
1.839996364108e+01 1.000000000000e+00 
1.843591176495e+01 1.000000000000e+00 
1.894255708785e+01 1.000000000000e+00 
1.897650809372e+01 1.000000000000e+00 
1.901045909959e+01 1.000000000000e+00 
1.904441010546e+01 1.000000000000e+00 
1.907836111134e+01 1.000000000000e+00 
1.959299490621e+01 1.000000000000e+00 
1.962494879409e+01 1.000000000000e+00 
1.965690268197e+01 1.000000000000e+00 
1.968885656985e+01 1.000000000000e+00 
1.972081045773e+01 1.000000000000e+00 
2.024343272457e+01 1.000000000000e+00 
2.027338949445e+01 1.000000000000e+00 
2.030334626434e+01 1.000000000000e+00 
2.033330303423e+01 1.000000000000e+00 
2.036325980412e+01 1.000000000000e+00 
2.089387054293e+01 1.000000000000e+00 
2.092183019482e+01 1.000000000000e+00 
2.094978984672e+01 1.000000000000e+00 
2.097774949861e+01 1.000000000000e+00 
2.100570915051e+01 1.000000000000e+00 
2.154430836129e+01 1.000000000000e+00 
2.157027089519e+01 1.000000000000e+00 
2.159623342910e+01 1.000000000000e+00 
2.162219596300e+01 1.000000000000e+00 
2.164815849690e+01 1.000000000000e+00 
2.219474617965e+01 1.000000000000e+00 
2.221871159556e+01 1.000000000000e+00 
2.224267701147e+01 1.000000000000e+00 
2.226664242738e+01 1.000000000000e+00 
2.229060784329e+01 1.000000000000e+00 
2.284518399802e+01 1.000000000000e+00 
2.286715229593e+01 1.000000000000e+00 
2.288912059385e+01 1.000000000000e+00 
2.291108889177e+01 1.000000000000e+00 
2.293305718968e+01 1.000000000000e+00 
2.349562181638e+01 1.000000000000e+00 
2.351559299630e+01 1.000000000000e+00 
2.353556417623e+01 1.000000000000e+00 
2.355553535615e+01 1.000000000000e+00 
2.357550653608e+01 1.000000000000e+00 
2.414605963474e+01 1.000000000000e+00 
2.416403369667e+01 1.000000000000e+00 
2.418200775860e+01 1.000000000000e+00 
2.419998182054e+01 1.000000000000e+00 
2.421795588247e+01 1.000000000000e+00 
2.479649745310e+01 1.000000000000e+00 
2.481247439704e+01 1.000000000000e+00 
2.482845134098e+01 1.000000000000e+00 
2.484442828492e+01 1.000000000000e+00 
2.486040522886e+01 1.000000000000e+00 
2.544693527146e+01 1.000000000000e+00 
2.546091509741e+01 1.000000000000e+00 
2.547489492336e+01 1.000000000000e+00 
2.548887474931e+01 1.000000000000e+00 
2.550285457525e+01 1.000000000000e+00 
2.609737308983e+01 1.000000000000e+00 
2.610935579778e+01 1.000000000000e+00 
2.612133850574e+01 1.000000000000e+00 
2.613332121369e+01 1.000000000000e+00 
2.614530392165e+01 1.000000000000e+00 
2.674781090819e+01 1.000000000000e+00 
2.675779649815e+01 1.000000000000e+00 
2.676778208811e+01 1.000000000000e+00 
2.677776767808e+01 1.000000000000e+00 
2.678775326804e+01 1.000000000000e+00 
2.739824872655e+01 1.000000000000e+00 
2.740623719852e+01 1.000000000000e+00 
2.741422567049e+01 1.000000000000e+00 
2.742221414246e+01 1.000000000000e+00 
2.743020261443e+01 1.000000000000e+00 
2.804868654491e+01 1.000000000000e+00 
2.805467789889e+01 1.000000000000e+00 
2.806066925287e+01 1.000000000000e+00 
2.806666060685e+01 1.000000000000e+00 
2.807265196082e+01 1.000000000000e+00 
2.869912436328e+01 1.000000000000e+00 
2.870311859926e+01 1.000000000000e+00 
2.870711283525e+01 1.000000000000e+00 
2.871110707123e+01 1.000000000000e+00 
2.871510130722e+01 1.000000000000e+00 
2.934956218164e+01 1.000000000000e+00 
2.935155929963e+01 1.000000000000e+00 
2.935355641762e+01 1.000000000000e+00 
2.935555353562e+01 1.000000000000e+00 
2.935755065361e+01 1.000000000000e+00 
3.000000000000e+01 1.000000000000e+00 
3.000000000000e+01 1.000000000000e+00 
3.000000000000e+01 1.000000000000e+00 
3.000000000000e+01 1.000000000000e+00 
3.000000000000e+01 1.000000000000e+00 
3.002500000000e+01 9.876207709446e-01 
3.002500000000e+01 9.876207709446e-01 
3.002500000000e+01 9.876207709446e-01 
3.002500000000e+01 9.876207709446e-01 
3.002500000000e+01 9.876207709446e-01 
3.005000000000e+01 9.697756439369e-01 
3.005000000000e+01 9.697756439369e-01 
3.005000000000e+01 9.697756439369e-01 
3.005000000000e+01 9.697756439369e-01 
3.005000000000e+01 9.697756439369e-01 
3.007500000000e+01 9.507134089444e-01 
3.007500000000e+01 9.507134089444e-01 
3.007500000000e+01 9.507134089444e-01 
3.007500000000e+01 9.507134089444e-01 
3.007500000000e+01 9.507134089444e-01 
3.010000000000e+01 9.315621650298e-01 
3.010000000000e+01 9.315621650298e-01 
3.010000000000e+01 9.315621650298e-01 
3.010000000000e+01 9.315621650298e-01 
3.010000000000e+01 9.315621650298e-01 
3.012500000000e+01 9.128758324042e-01 
3.012500000000e+01 9.128758324042e-01 
3.012500000000e+01 9.128758324042e-01 
3.012500000000e+01 9.128758324042e-01 
3.012500000000e+01 9.128758324042e-01 
3.015000000000e+01 8.949248043380e-01 
3.015000000000e+01 8.949248043380e-01 
3.015000000000e+01 8.949248043380e-01 
3.015000000000e+01 8.949248043380e-01 
3.015000000000e+01 8.949248043380e-01 
3.017500000000e+01 8.778290027968e-01 
3.017500000000e+01 8.778290027968e-01 
3.017500000000e+01 8.778290027968e-01 
3.017500000000e+01 8.778290027968e-01 
3.017500000000e+01 8.778290027968e-01 
3.020000000000e+01 8.616255702900e-01 
3.020000000000e+01 8.616255702900e-01 
3.020000000000e+01 8.616255702900e-01 
3.020000000000e+01 8.616255702900e-01 
3.020000000000e+01 8.616255702900e-01 
3.022500000000e+01 8.463059583920e-01 
3.022500000000e+01 8.463059583920e-01 
3.022500000000e+01 8.463059583920e-01 
3.022500000000e+01 8.463059583920e-01 
3.022500000000e+01 8.463059583920e-01 
3.025000000000e+01 8.318370344398e-01 
3.025000000000e+01 8.318370344398e-01 
3.025000000000e+01 8.318370344398e-01 
3.025000000000e+01 8.318370344398e-01 
3.025000000000e+01 8.318370344398e-01 
3.027500000000e+01 8.181733156316e-01 
3.027500000000e+01 8.181733156316e-01 
3.027500000000e+01 8.181733156316e-01 
3.027500000000e+01 8.181733156316e-01 
3.027500000000e+01 8.181733156316e-01 
3.030000000000e+01 8.052640970350e-01 
3.030000000000e+01 8.052640970350e-01 
3.030000000000e+01 8.052640970350e-01 
3.030000000000e+01 8.052640970350e-01 
3.030000000000e+01 8.052640970350e-01 
3.032500000000e+01 7.930575753856e-01 
3.032500000000e+01 7.930575753856e-01 
3.032500000000e+01 7.930575753856e-01 
3.032500000000e+01 7.930575753856e-01 
3.032500000000e+01 7.930575753856e-01 
3.035000000000e+01 7.815031815402e-01 
3.035000000000e+01 7.815031815402e-01 
3.035000000000e+01 7.815031815402e-01 
3.035000000000e+01 7.815031815402e-01 
3.035000000000e+01 7.815031815402e-01 
3.037500000000e+01 7.705528376764e-01 
3.037500000000e+01 7.705528376764e-01 
3.037500000000e+01 7.705528376764e-01 
3.037500000000e+01 7.705528376764e-01 
3.037500000000e+01 7.705528376764e-01 
3.040000000000e+01 7.601615689674e-01 
3.040000000000e+01 7.601615689674e-01 
3.040000000000e+01 7.601615689674e-01 
3.040000000000e+01 7.601615689674e-01 
3.040000000000e+01 7.601615689674e-01 
3.042500000000e+01 7.502877306002e-01 
3.042500000000e+01 7.502877306002e-01 
3.042500000000e+01 7.502877306002e-01 
3.042500000000e+01 7.502877306002e-01 
3.042500000000e+01 7.502877306002e-01 
3.045000000000e+01 7.408930096824e-01 
3.045000000000e+01 7.408930096824e-01 
3.045000000000e+01 7.408930096824e-01 
3.045000000000e+01 7.408930096824e-01 
3.045000000000e+01 7.408930096824e-01 
3.047500000000e+01 7.319422999608e-01 
3.047500000000e+01 7.319422999608e-01 
3.047500000000e+01 7.319422999608e-01 
3.047500000000e+01 7.319422999608e-01 
3.047500000000e+01 7.319422999608e-01 
3.050000000000e+01 7.234035093991e-01 
3.050000000000e+01 7.234035093991e-01 
3.050000000000e+01 7.234035093991e-01 
3.050000000000e+01 7.234035093991e-01 
3.050000000000e+01 7.234035093991e-01 
3.052500000000e+01 7.152473371957e-01 
3.052500000000e+01 7.152473371957e-01 
3.052500000000e+01 7.152473371957e-01 
3.052500000000e+01 7.152473371957e-01 
3.052500000000e+01 7.152473371957e-01 
3.055000000000e+01 7.074470422112e-01 
3.055000000000e+01 7.074470422112e-01 
3.055000000000e+01 7.074470422112e-01 
3.055000000000e+01 7.074470422112e-01 
3.055000000000e+01 7.074470422112e-01 
3.057500000000e+01 6.999782156504e-01 
3.057500000000e+01 6.999782156504e-01 
3.057500000000e+01 6.999782156504e-01 
3.057500000000e+01 6.999782156504e-01 
3.057500000000e+01 6.999782156504e-01 
3.060000000000e+01 6.928185651596e-01 
3.060000000000e+01 6.928185651596e-01 
3.060000000000e+01 6.928185651596e-01 
3.060000000000e+01 6.928185651596e-01 
3.060000000000e+01 6.928185651596e-01 
3.062500000000e+01 6.859477139679e-01 
3.062500000000e+01 6.859477139679e-01 
3.062500000000e+01 6.859477139679e-01 
3.062500000000e+01 6.859477139679e-01 
3.062500000000e+01 6.859477139679e-01 
3.065000000000e+01 6.793470165436e-01 
3.065000000000e+01 6.793470165436e-01 
3.065000000000e+01 6.793470165436e-01 
3.065000000000e+01 6.793470165436e-01 
3.065000000000e+01 6.793470165436e-01 
3.067500000000e+01 6.729993909360e-01 
3.067500000000e+01 6.729993909360e-01 
3.067500000000e+01 6.729993909360e-01 
3.067500000000e+01 6.729993909360e-01 
3.067500000000e+01 6.729993909360e-01 
3.070000000000e+01 6.668891672206e-01 
3.070000000000e+01 6.668891672206e-01 
3.070000000000e+01 6.668891672206e-01 
3.070000000000e+01 6.668891672206e-01 
3.070000000000e+01 6.668891672206e-01 
3.072500000000e+01 6.610019510587e-01 
3.072500000000e+01 6.610019510587e-01 
3.072500000000e+01 6.610019510587e-01 
3.072500000000e+01 6.610019510587e-01 
3.072500000000e+01 6.610019510587e-01 
3.075000000000e+01 6.553245011865e-01 
3.075000000000e+01 6.553245011865e-01 
3.075000000000e+01 6.553245011865e-01 
3.075000000000e+01 6.553245011865e-01 
3.075000000000e+01 6.553245011865e-01 
3.077500000000e+01 6.498446195878e-01 
3.077500000000e+01 6.498446195878e-01 
3.077500000000e+01 6.498446195878e-01 
3.077500000000e+01 6.498446195878e-01 
3.077500000000e+01 6.498446195878e-01 
3.080000000000e+01 6.445510531188e-01 
3.080000000000e+01 6.445510531188e-01 
3.080000000000e+01 6.445510531188e-01 
3.080000000000e+01 6.445510531188e-01 
3.080000000000e+01 6.445510531188e-01 
3.082500000000e+01 6.394334054150e-01 
3.082500000000e+01 6.394334054150e-01 
3.082500000000e+01 6.394334054150e-01 
3.082500000000e+01 6.394334054150e-01 
3.082500000000e+01 6.394334054150e-01 
3.085000000000e+01 6.344820579917e-01 
3.085000000000e+01 6.344820579917e-01 
3.085000000000e+01 6.344820579917e-01 
3.085000000000e+01 6.344820579917e-01 
3.085000000000e+01 6.344820579917e-01 
3.087500000000e+01 6.296880995462e-01 
3.087500000000e+01 6.296880995462e-01 
3.087500000000e+01 6.296880995462e-01 
3.087500000000e+01 6.296880995462e-01 
3.087500000000e+01 6.296880995462e-01 
3.090000000000e+01 6.250432625624e-01 
3.090000000000e+01 6.250432625624e-01 
3.090000000000e+01 6.250432625624e-01 
3.090000000000e+01 6.250432625624e-01 
3.090000000000e+01 6.250432625624e-01 
3.092500000000e+01 6.205398664126e-01 
3.092500000000e+01 6.205398664126e-01 
3.092500000000e+01 6.205398664126e-01 
3.092500000000e+01 6.205398664126e-01 
3.092500000000e+01 6.205398664126e-01 
3.095000000000e+01 6.161707662369e-01 
3.095000000000e+01 6.161707662369e-01 
3.095000000000e+01 6.161707662369e-01 
3.095000000000e+01 6.161707662369e-01 
3.095000000000e+01 6.161707662369e-01 
3.097500000000e+01 6.119293069613e-01 
3.097500000000e+01 6.119293069613e-01 
3.097500000000e+01 6.119293069613e-01 
3.097500000000e+01 6.119293069613e-01 
3.097500000000e+01 6.119293069613e-01 
3.100000000000e+01 6.078092818871e-01 
3.100000000000e+01 6.078092818871e-01 
3.100000000000e+01 6.078092818871e-01 
3.100000000000e+01 6.078092818871e-01 
3.100000000000e+01 6.078092818871e-01 
3.102500000000e+01 6.038048953494e-01 
3.102500000000e+01 6.038048953494e-01 
3.102500000000e+01 6.038048953494e-01 
3.102500000000e+01 6.038048953494e-01 
3.102500000000e+01 6.038048953494e-01 
3.105000000000e+01 5.999107290013e-01 
3.105000000000e+01 5.999107290013e-01 
3.105000000000e+01 5.999107290013e-01 
3.105000000000e+01 5.999107290013e-01 
3.105000000000e+01 5.999107290013e-01 
3.107500000000e+01 5.961217113309e-01 
3.107500000000e+01 5.961217113309e-01 
3.107500000000e+01 5.961217113309e-01 
3.107500000000e+01 5.961217113309e-01 
3.107500000000e+01 5.961217113309e-01 
3.110000000000e+01 5.924330900627e-01 
3.110000000000e+01 5.924330900627e-01 
3.110000000000e+01 5.924330900627e-01 
3.110000000000e+01 5.924330900627e-01 
3.110000000000e+01 5.924330900627e-01 
3.112500000000e+01 5.888404071392e-01 
3.112500000000e+01 5.888404071392e-01 
3.112500000000e+01 5.888404071392e-01 
3.112500000000e+01 5.888404071392e-01 
3.112500000000e+01 5.888404071392e-01 
3.115000000000e+01 5.853394760078e-01 
3.115000000000e+01 5.853394760078e-01 
3.115000000000e+01 5.853394760078e-01 
3.115000000000e+01 5.853394760078e-01 
3.115000000000e+01 5.853394760078e-01 
3.117500000000e+01 5.819263609758e-01 
3.117500000000e+01 5.819263609758e-01 
3.117500000000e+01 5.819263609758e-01 
3.117500000000e+01 5.819263609758e-01 
3.117500000000e+01 5.819263609758e-01 
3.120000000000e+01 5.785973584173e-01 
3.120000000000e+01 5.785973584173e-01 
3.120000000000e+01 5.785973584173e-01 
3.120000000000e+01 5.785973584173e-01 
3.120000000000e+01 5.785973584173e-01 
3.122500000000e+01 5.753489796460e-01 
3.122500000000e+01 5.753489796460e-01 
3.122500000000e+01 5.753489796460e-01 
3.122500000000e+01 5.753489796460e-01 
3.122500000000e+01 5.753489796460e-01 
3.125000000000e+01 5.721779352840e-01 
3.125000000000e+01 5.721779352840e-01 
3.125000000000e+01 5.721779352840e-01 
3.125000000000e+01 5.721779352840e-01 
3.125000000000e+01 5.721779352840e-01 
3.127500000000e+01 5.690811209785e-01 
3.127500000000e+01 5.690811209785e-01 
3.127500000000e+01 5.690811209785e-01 
3.127500000000e+01 5.690811209785e-01 
3.127500000000e+01 5.690811209785e-01 
3.130000000000e+01 5.660556043336e-01 
3.130000000000e+01 5.660556043336e-01 
3.130000000000e+01 5.660556043336e-01 
3.130000000000e+01 5.660556043336e-01 
3.130000000000e+01 5.660556043336e-01 
3.132500000000e+01 5.630986129391e-01 
3.132500000000e+01 5.630986129391e-01 
3.132500000000e+01 5.630986129391e-01 
3.132500000000e+01 5.630986129391e-01 
3.132500000000e+01 5.630986129391e-01 
3.135000000000e+01 5.602075233904e-01 
3.135000000000e+01 5.602075233904e-01 
3.135000000000e+01 5.602075233904e-01 
3.135000000000e+01 5.602075233904e-01 
3.135000000000e+01 5.602075233904e-01 
3.137500000000e+01 5.573798512060e-01 
3.137500000000e+01 5.573798512060e-01 
3.137500000000e+01 5.573798512060e-01 
3.137500000000e+01 5.573798512060e-01 
3.137500000000e+01 5.573798512060e-01 
3.140000000000e+01 5.546132415581e-01 
3.140000000000e+01 5.546132415581e-01 
3.140000000000e+01 5.546132415581e-01 
3.140000000000e+01 5.546132415581e-01 
3.140000000000e+01 5.546132415581e-01 
3.142500000000e+01 5.519054607414e-01 
3.142500000000e+01 5.519054607414e-01 
3.142500000000e+01 5.519054607414e-01 
3.142500000000e+01 5.519054607414e-01 
3.142500000000e+01 5.519054607414e-01 
3.145000000000e+01 5.492543883110e-01 
3.145000000000e+01 5.492543883110e-01 
3.145000000000e+01 5.492543883110e-01 
3.145000000000e+01 5.492543883110e-01 
3.145000000000e+01 5.492543883110e-01 
3.147500000000e+01 5.466580098318e-01 
3.147500000000e+01 5.466580098318e-01 
3.147500000000e+01 5.466580098318e-01 
3.147500000000e+01 5.466580098318e-01 
3.147500000000e+01 5.466580098318e-01 
3.150000000000e+01 5.441144101810e-01 
3.150000000000e+01 5.441144101810e-01 
3.150000000000e+01 5.441144101810e-01 
3.150000000000e+01 5.441144101810e-01 
3.150000000000e+01 5.441144101810e-01 
3.152500000000e+01 5.416217673588e-01 
3.152500000000e+01 5.416217673588e-01 
3.152500000000e+01 5.416217673588e-01 
3.152500000000e+01 5.416217673588e-01 
3.152500000000e+01 5.416217673588e-01 
3.155000000000e+01 5.391783467591e-01 
3.155000000000e+01 5.391783467591e-01 
3.155000000000e+01 5.391783467591e-01 
3.155000000000e+01 5.391783467591e-01 
3.155000000000e+01 5.391783467591e-01 
3.157500000000e+01 5.367824958643e-01 
3.157500000000e+01 5.367824958643e-01 
3.157500000000e+01 5.367824958643e-01 
3.157500000000e+01 5.367824958643e-01 
3.157500000000e+01 5.367824958643e-01 
3.160000000000e+01 5.344326393247e-01 
3.160000000000e+01 5.344326393247e-01 
3.160000000000e+01 5.344326393247e-01 
3.160000000000e+01 5.344326393247e-01 
3.160000000000e+01 5.344326393247e-01 
3.162500000000e+01 5.321272743928e-01 
3.162500000000e+01 5.321272743928e-01 
3.162500000000e+01 5.321272743928e-01 
3.162500000000e+01 5.321272743928e-01 
3.162500000000e+01 5.321272743928e-01 
3.165000000000e+01 5.298649666811e-01 
3.165000000000e+01 5.298649666811e-01 
3.165000000000e+01 5.298649666811e-01 
3.165000000000e+01 5.298649666811e-01 
3.165000000000e+01 5.298649666811e-01 
3.167500000000e+01 5.276443462180e-01 
3.167500000000e+01 5.276443462180e-01 
3.167500000000e+01 5.276443462180e-01 
3.167500000000e+01 5.276443462180e-01 
3.167500000000e+01 5.276443462180e-01 
3.170000000000e+01 5.254641037767e-01 
3.170000000000e+01 5.254641037767e-01 
3.170000000000e+01 5.254641037767e-01 
3.170000000000e+01 5.254641037767e-01 
3.170000000000e+01 5.254641037767e-01 
3.172500000000e+01 5.233229874560e-01 
3.172500000000e+01 5.233229874560e-01 
3.172500000000e+01 5.233229874560e-01 
3.172500000000e+01 5.233229874560e-01 
3.172500000000e+01 5.233229874560e-01 
3.175000000000e+01 5.212197994921e-01 
3.175000000000e+01 5.212197994921e-01 
3.175000000000e+01 5.212197994921e-01 
3.175000000000e+01 5.212197994921e-01 
3.175000000000e+01 5.212197994921e-01 
3.177500000000e+01 5.191533932842e-01 
3.177500000000e+01 5.191533932842e-01 
3.177500000000e+01 5.191533932842e-01 
3.177500000000e+01 5.191533932842e-01 
3.177500000000e+01 5.191533932842e-01 
3.180000000000e+01 5.171226706164e-01 
3.180000000000e+01 5.171226706164e-01 
3.180000000000e+01 5.171226706164e-01 
3.180000000000e+01 5.171226706164e-01 
3.180000000000e+01 5.171226706164e-01 
3.182500000000e+01 5.151265790614e-01 
3.182500000000e+01 5.151265790614e-01 
3.182500000000e+01 5.151265790614e-01 
3.182500000000e+01 5.151265790614e-01 
3.182500000000e+01 5.151265790614e-01 
3.185000000000e+01 5.131641095520e-01 
3.185000000000e+01 5.131641095520e-01 
3.185000000000e+01 5.131641095520e-01 
3.185000000000e+01 5.131641095520e-01 
3.185000000000e+01 5.131641095520e-01 
3.187500000000e+01 5.112342941078e-01 
3.187500000000e+01 5.112342941078e-01 
3.187500000000e+01 5.112342941078e-01 
3.187500000000e+01 5.112342941078e-01 
3.187500000000e+01 5.112342941078e-01 
3.190000000000e+01 5.093362037054e-01 
3.190000000000e+01 5.093362037054e-01 
3.190000000000e+01 5.093362037054e-01 
3.190000000000e+01 5.093362037054e-01 
3.190000000000e+01 5.093362037054e-01 
3.192500000000e+01 5.074689462822e-01 
3.192500000000e+01 5.074689462822e-01 
3.192500000000e+01 5.074689462822e-01 
3.192500000000e+01 5.074689462822e-01 
3.192500000000e+01 5.074689462822e-01 
3.195000000000e+01 5.056316648631e-01 
3.195000000000e+01 5.056316648631e-01 
3.195000000000e+01 5.056316648631e-01 
3.195000000000e+01 5.056316648631e-01 
3.195000000000e+01 5.056316648631e-01 
3.197500000000e+01 5.038235358020e-01 
3.197500000000e+01 5.038235358020e-01 
3.197500000000e+01 5.038235358020e-01 
3.197500000000e+01 5.038235358020e-01 
3.197500000000e+01 5.038235358020e-01 
3.200000000000e+01 4.979768690895e-01 
3.200000000000e+01 4.980286281093e-01 
3.200000000000e+01 4.980544651652e-01 
3.200000000000e+01 4.980027626521e-01 
3.200000000000e+01 4.980802735215e-01 
3.469737308983e+01 3.915349301847e-01 
3.470935579779e+01 3.912407136471e-01 
3.472133850574e+01 3.909474667107e-01 
3.473332121370e+01 3.906551838960e-01 
3.474530392165e+01 3.903638597674e-01 
3.739474617966e+01 3.465878704193e-01 
3.741871159557e+01 3.462750112955e-01 
3.744267701148e+01 3.459634880789e-01 
3.746664242739e+01 3.456532908606e-01 
3.749060784330e+01 3.453444098363e-01 
4.009211926949e+01 3.185710419017e-01 
4.012806739336e+01 3.182610752925e-01 
4.016401551722e+01 3.179525641559e-01 
4.019996364109e+01 3.176454965931e-01 
4.023591176495e+01 3.173398608440e-01 
4.278949235933e+01 2.988885882797e-01 
4.283742319115e+01 2.985868910042e-01 
4.288535402296e+01 2.982866852381e-01 
4.293328485478e+01 2.979879581378e-01 
4.298121568660e+01 2.976906970167e-01 
4.548686544916e+01 2.839880559043e-01 
4.554677898893e+01 2.836955821814e-01 
4.560669252871e+01 2.834046020781e-01 
4.566660606848e+01 2.831151023063e-01 
4.572651960825e+01 2.828270697460e-01 
 TITLE = "Profiles along polylines"
 VARIABLES = "DIST" "SATURATION1" 
 ZONE T="TIME=1.797693134862e+308"
1.048686544916e+01 1.000000000000e+00 
1.054677898893e+01 1.000000000000e+00 
1.060669252871e+01 1.000000000000e+00 
1.066660606848e+01 1.000000000000e+00 
1.072651960825e+01 1.000000000000e+00 
1.113730326752e+01 1.000000000000e+00 
1.119521968930e+01 1.000000000000e+00 
1.125313611108e+01 1.000000000000e+00 
1.131105253286e+01 1.000000000000e+00 
1.136896895465e+01 1.000000000000e+00 
1.178774108588e+01 1.000000000000e+00 
1.184366038967e+01 1.000000000000e+00 
1.189957969346e+01 1.000000000000e+00 
1.195549899725e+01 1.000000000000e+00 
1.201141830104e+01 1.000000000000e+00 
1.243817890424e+01 1.000000000000e+00 
1.249210109004e+01 1.000000000000e+00 
1.254602327584e+01 1.000000000000e+00 
1.259994546163e+01 1.000000000000e+00 
1.265386764743e+01 1.000000000000e+00 
1.308861672260e+01 1.000000000000e+00 
1.314054179041e+01 1.000000000000e+00 
1.319246685821e+01 1.000000000000e+00 
1.324439192602e+01 1.000000000000e+00 
1.329631699382e+01 1.000000000000e+00 
1.373905454096e+01 1.000000000000e+00 
1.378898249078e+01 1.000000000000e+00 
1.383891044059e+01 1.000000000000e+00 
1.388883839040e+01 1.000000000000e+00 
1.393876634021e+01 1.000000000000e+00 
1.438949235933e+01 1.000000000000e+00 
1.443742319114e+01 1.000000000000e+00 
1.448535402296e+01 1.000000000000e+00 
1.453328485478e+01 1.000000000000e+00 
1.458121568660e+01 1.000000000000e+00 
1.503993017769e+01 1.000000000000e+00 
1.508586389151e+01 1.000000000000e+00 
1.513179760534e+01 1.000000000000e+00 
1.517773131917e+01 1.000000000000e+00 
1.522366503299e+01 1.000000000000e+00 
1.569036799605e+01 1.000000000000e+00 
1.573430459188e+01 1.000000000000e+00 
1.577824118772e+01 1.000000000000e+00 
1.582217778355e+01 1.000000000000e+00 
1.586611437939e+01 1.000000000000e+00 
1.634080581441e+01 1.000000000000e+00 
1.638274529225e+01 1.000000000000e+00 
1.642468477009e+01 1.000000000000e+00 
1.646662424793e+01 1.000000000000e+00 
1.650856372578e+01 1.000000000000e+00 
1.699124363277e+01 1.000000000000e+00 
1.703118599262e+01 1.000000000000e+00 
1.707112835247e+01 1.000000000000e+00 
1.711107071232e+01 1.000000000000e+00 
1.715101307217e+01 1.000000000000e+00 
1.764168145113e+01 1.000000000000e+00 
1.767962669298e+01 1.000000000000e+00 
1.771757193484e+01 1.000000000000e+00 
1.775551717670e+01 1.000000000000e+00 
1.779346241856e+01 1.000000000000e+00 
1.829211926949e+01 1.000000000000e+00 
1.832806739335e+01 1.000000000000e+00 
1.836401551722e+01 1.000000000000e+00 
1.839996364108e+01 1.000000000000e+00 
1.843591176495e+01 1.000000000000e+00 
1.894255708785e+01 1.000000000000e+00 
1.897650809372e+01 1.000000000000e+00 
1.901045909959e+01 1.000000000000e+00 
1.904441010546e+01 1.000000000000e+00 
1.907836111134e+01 1.000000000000e+00 
1.959299490621e+01 1.000000000000e+00 
1.962494879409e+01 1.000000000000e+00 
1.965690268197e+01 1.000000000000e+00 
1.968885656985e+01 1.000000000000e+00 
1.972081045773e+01 1.000000000000e+00 
2.024343272457e+01 1.000000000000e+00 
2.027338949445e+01 1.000000000000e+00 
2.030334626434e+01 1.000000000000e+00 
2.033330303423e+01 1.000000000000e+00 
2.036325980412e+01 1.000000000000e+00 
2.089387054293e+01 1.000000000000e+00 
2.092183019482e+01 1.000000000000e+00 
2.094978984672e+01 1.000000000000e+00 
2.097774949861e+01 1.000000000000e+00 
2.100570915051e+01 1.000000000000e+00 
2.154430836129e+01 1.000000000000e+00 
2.157027089519e+01 1.000000000000e+00 
2.159623342910e+01 1.000000000000e+00 
2.162219596300e+01 1.000000000000e+00 
2.164815849690e+01 1.000000000000e+00 
2.219474617965e+01 1.000000000000e+00 
2.221871159556e+01 1.000000000000e+00 
2.224267701147e+01 1.000000000000e+00 
2.226664242738e+01 1.000000000000e+00 
2.229060784329e+01 1.000000000000e+00 
2.284518399802e+01 1.000000000000e+00 
2.286715229593e+01 1.000000000000e+00 
2.288912059385e+01 1.000000000000e+00 
2.291108889177e+01 1.000000000000e+00 
2.293305718968e+01 1.000000000000e+00 
2.349562181638e+01 1.000000000000e+00 
2.351559299630e+01 1.000000000000e+00 
2.353556417623e+01 1.000000000000e+00 
2.355553535615e+01 1.000000000000e+00 
2.357550653608e+01 1.000000000000e+00 
2.414605963474e+01 1.000000000000e+00 
2.416403369667e+01 1.000000000000e+00 
2.418200775860e+01 1.000000000000e+00 
2.419998182054e+01 1.000000000000e+00 
2.421795588247e+01 1.000000000000e+00 
2.479649745310e+01 1.000000000000e+00 
2.481247439704e+01 1.000000000000e+00 
2.482845134098e+01 1.000000000000e+00 
2.484442828492e+01 1.000000000000e+00 
2.486040522886e+01 1.000000000000e+00 
2.544693527146e+01 1.000000000000e+00 
2.546091509741e+01 1.000000000000e+00 
2.547489492336e+01 1.000000000000e+00 
2.548887474931e+01 1.000000000000e+00 
2.550285457525e+01 1.000000000000e+00 
2.609737308983e+01 1.000000000000e+00 
2.610935579778e+01 1.000000000000e+00 
2.612133850574e+01 1.000000000000e+00 
2.613332121369e+01 1.000000000000e+00 
2.614530392165e+01 1.000000000000e+00 
2.674781090819e+01 1.000000000000e+00 
2.675779649815e+01 1.000000000000e+00 
2.676778208811e+01 1.000000000000e+00 
2.677776767808e+01 1.000000000000e+00 
2.678775326804e+01 1.000000000000e+00 
2.739824872655e+01 1.000000000000e+00 
2.740623719852e+01 1.000000000000e+00 
2.741422567049e+01 1.000000000000e+00 
2.742221414246e+01 1.000000000000e+00 
2.743020261443e+01 1.000000000000e+00 
2.804868654491e+01 1.000000000000e+00 
2.805467789889e+01 1.000000000000e+00 
2.806066925287e+01 1.000000000000e+00 
2.806666060685e+01 1.000000000000e+00 
2.807265196082e+01 1.000000000000e+00 
2.869912436328e+01 1.000000000000e+00 
2.870311859926e+01 1.000000000000e+00 
2.870711283525e+01 1.000000000000e+00 
2.871110707123e+01 1.000000000000e+00 
2.871510130722e+01 1.000000000000e+00 
2.934956218164e+01 1.000000000000e+00 
2.935155929963e+01 1.000000000000e+00 
2.935355641762e+01 1.000000000000e+00 
2.935555353562e+01 1.000000000000e+00 
2.935755065361e+01 1.000000000000e+00 
3.000000000000e+01 1.000000000000e+00 
3.000000000000e+01 1.000000000000e+00 
3.000000000000e+01 1.000000000000e+00 
3.000000000000e+01 1.000000000000e+00 
3.000000000000e+01 1.000000000000e+00 
3.002500000000e+01 1.000000000000e+00 
3.002500000000e+01 1.000000000000e+00 
3.002500000000e+01 1.000000000000e+00 
3.002500000000e+01 1.000000000000e+00 
3.002500000000e+01 1.000000000000e+00 
3.005000000000e+01 1.000000000000e+00 
3.005000000000e+01 1.000000000000e+00 
3.005000000000e+01 1.000000000000e+00 
3.005000000000e+01 1.000000000000e+00 
3.005000000000e+01 1.000000000000e+00 
3.007500000000e+01 1.000000000000e+00 
3.007500000000e+01 1.000000000000e+00 
3.007500000000e+01 1.000000000000e+00 
3.007500000000e+01 1.000000000000e+00 
3.007500000000e+01 1.000000000000e+00 
3.010000000000e+01 1.000000000000e+00 
3.010000000000e+01 1.000000000000e+00 
3.010000000000e+01 1.000000000000e+00 
3.010000000000e+01 1.000000000000e+00 
3.010000000000e+01 1.000000000000e+00 
3.012500000000e+01 1.000000000000e+00 
3.012500000000e+01 1.000000000000e+00 
3.012500000000e+01 1.000000000000e+00 
3.012500000000e+01 1.000000000000e+00 
3.012500000000e+01 1.000000000000e+00 
3.015000000000e+01 1.000000000000e+00 
3.015000000000e+01 1.000000000000e+00 
3.015000000000e+01 1.000000000000e+00 