 TITLE = "Profiles along polylines"
 VARIABLES = "DIST" "SATURATION1" 
 ZONE T="TIME=0.000000000000e+00"
0.000000000000e+00 1.000000000000e+00 
5.001711417361e-03 1.000000000000e+00 
1.000342283472e-02 1.000000000000e+00 
9.999999999997e-01 1.000000000000e+00 
1.004834987703e+00 1.000000000000e+00 
1.009669975407e+00 1.000000000000e+00 
1.999999999999e+00 1.000000000000e+00 
2.004668263989e+00 1.000000000000e+00 
2.009336527978e+00 1.000000000000e+00 
3.000000000000e+00 1.000000000000e+00 
3.004501540275e+00 1.000000000000e+00 
3.009003080551e+00 1.000000000000e+00 
4.000000000000e+00 1.000000000000e+00 
4.004334816561e+00 1.000000000000e+00 
4.008669633123e+00 1.000000000000e+00 
4.999999999999e+00 1.000000000000e+00 
5.004168092847e+00 1.000000000000e+00 
5.008336185694e+00 1.000000000000e+00 
5.999999999998e+00 1.000000000000e+00 
6.004001369132e+00 1.000000000000e+00 
6.008002738266e+00 1.000000000000e+00 
6.999999999997e+00 1.000000000000e+00 
7.003834645417e+00 1.000000000000e+00 
7.007669290837e+00 1.000000000000e+00 
7.999999999996e+00 1.000000000000e+00 
8.003667921702e+00 1.000000000000e+00 
8.007335843408e+00 1.000000000000e+00 
8.999999999992e+00 1.000000000000e+00 
9.003501197985e+00 1.000000000000e+00 
9.007002395977e+00 1.000000000000e+00 
9.999999999989e+00 1.000000000000e+00 
1.000333447427e+01 1.000000000000e+00 
1.000666894855e+01 1.000000000000e+00 
1.099999999998e+01 1.000000000000e+00 
1.100316775055e+01 1.000000000000e+00 
1.100633550111e+01 1.000000000000e+00 
1.199999999998e+01 1.000000000000e+00 
1.200300102683e+01 1.000000000000e+00 
1.200600205368e+01 1.000000000000e+00 
1.299999999998e+01 1.000000000000e+00 
1.300283430311e+01 1.000000000000e+00 
1.300566860625e+01 1.000000000000e+00 
1.399999999997e+01 1.000000000000e+00 
1.400266757940e+01 1.000000000000e+00 
1.400533515882e+01 1.000000000000e+00 
1.499999999997e+01 1.000000000000e+00 
1.500250085568e+01 1.000000000000e+00 
1.500500171139e+01 1.000000000000e+00 
1.599999999997e+01 1.000000000000e+00 
1.600233413197e+01 1.000000000000e+00 
1.600466826396e+01 1.000000000000e+00 
1.699999999997e+01 1.000000000000e+00 
1.700216740825e+01 1.000000000000e+00 
1.700433481654e+01 1.000000000000e+00 
1.799999999998e+01 1.000000000000e+00 
1.800200068454e+01 1.000000000000e+00 
1.800400136911e+01 1.000000000000e+00 
1.899999999998e+01 1.000000000000e+00 
1.900183396083e+01 1.000000000000e+00 
1.900366792168e+01 1.000000000000e+00 
1.999999999998e+01 1.000000000000e+00 
2.000166723712e+01 1.000000000000e+00 
2.000333447426e+01 1.000000000000e+00 
2.099999999998e+01 1.000000000000e+00 
2.100150051341e+01 1.000000000000e+00 
2.100300102683e+01 1.000000000000e+00 
2.199999999998e+01 1.000000000000e+00 
2.200133378969e+01 1.000000000000e+00 
2.200266757941e+01 1.000000000000e+00 
2.299999999999e+01 1.000000000000e+00 
2.300116706598e+01 1.000000000000e+00 
2.300233413198e+01 1.000000000000e+00 
2.399999999999e+01 1.000000000000e+00 
2.400100034227e+01 1.000000000000e+00 
2.400200068455e+01 1.000000000000e+00 
2.499999999999e+01 1.000000000000e+00 
2.500083361856e+01 1.000000000000e+00 
2.500166723713e+01 1.000000000000e+00 
2.599999999999e+01 1.000000000000e+00 
2.600066689485e+01 1.000000000000e+00 
2.600133378970e+01 1.000000000000e+00 
2.699999999999e+01 1.000000000000e+00 
2.700050017114e+01 1.000000000000e+00 
2.700100034228e+01 1.000000000000e+00 
2.800000000000e+01 1.000000000000e+00 
2.800033344742e+01 1.000000000000e+00 
2.800066689485e+01 1.000000000000e+00 
2.900000000000e+01 1.000000000000e+00 
2.900016672371e+01 1.000000000000e+00 
2.900033344743e+01 1.000000000000e+00 
3.000000000000e+01 1.000000000000e+00 
3.000000000000e+01 1.000000000000e+00 
3.000000000000e+01 1.000000000000e+00 
3.002500000000e+01 9.876207709446e-01 
3.002500000000e+01 9.876207709446e-01 
3.002500000000e+01 9.876207709446e-01 
3.005000000000e+01 9.697756439369e-01 
3.005000000000e+01 9.697756439369e-01 
3.005000000000e+01 9.697756439369e-01 
3.007500000000e+01 9.507134089444e-01 
3.007500000000e+01 9.507134089444e-01 
3.007500000000e+01 9.507134089444e-01 
3.010000000000e+01 9.315621650298e-01 
3.010000000000e+01 9.315621650298e-01 
3.010000000000e+01 9.315621650298e-01 
3.012500000000e+01 9.128758324042e-01 
3.012500000000e+01 9.128758324042e-01 
3.012500000000e+01 9.128758324042e-01 
3.015000000000e+01 8.949248043380e-01 
3.015000000000e+01 8.949248043380e-01 
3.015000000000e+01 8.949248043380e-01 
3.017500000000e+01 8.778290027968e-01 
3.017500000000e+01 8.778290027968e-01 
3.017500000000e+01 8.778290027968e-01 
3.020000000000e+01 8.616255702900e-01 
3.020000000000e+01 8.616255702900e-01 
3.020000000000e+01 8.616255702900e-01 
3.022500000000e+01 8.463059583920e-01 
3.022500000000e+01 8.463059583920e-01 
3.022500000000e+01 8.463059583920e-01 
3.025000000000e+01 8.318370344398e-01 
3.025000000000e+01 8.318370344398e-01 
3.025000000000e+01 8.318370344398e-01 
3.027500000000e+01 8.181733156316e-01 
3.027500000000e+01 8.181733156316e-01 
3.027500000000e+01 8.181733156316e-01 
3.030000000000e+01 8.052640970350e-01 
3.030000000000e+01 8.052640970350e-01 
3.030000000000e+01 8.052640970350e-01 
3.032500000000e+01 7.930575753856e-01 
3.032500000000e+01 7.930575753856e-01 
3.032500000000e+01 7.930575753856e-01 
3.035000000000e+01 7.815031815402e-01 
3.035000000000e+01 7.815031815402e-01 
3.035000000000e+01 7.815031815402e-01 
3.037500000000e+01 7.705528376764e-01 
3.037500000000e+01 7.705528376764e-01 
3.037500000000e+01 7.705528376764e-01 
3.040000000000e+01 7.601615689674e-01 
3.040000000000e+01 7.601615689674e-01 
3.040000000000e+01 7.601615689674e-01 
3.042500000000e+01 7.502877306002e-01 
3.042500000000e+01 7.502877306002e-01 
3.042500000000e+01 7.502877306002e-01 
3.045000000000e+01 7.408930096824e-01 
3.045000000000e+01 7.408930096824e-01 
3.045000000000e+01 7.408930096824e-01 
3.047500000000e+01 7.319422999608e-01 
3.047500000000e+01 7.319422999608e-01 
3.047500000000e+01 7.319422999608e-01 
3.050000000000e+01 7.234035093991e-01 
3.050000000000e+01 7.234035093991e-01 
3.050000000000e+01 7.234035093991e-01 
3.052500000000e+01 7.152473371957e-01 
3.052500000000e+01 7.152473371957e-01 
3.052500000000e+01 7.152473371957e-01 
3.055000000000e+01 7.074470422112e-01 
3.055000000000e+01 7.074470422112e-01 
3.055000000000e+01 7.074470422112e-01 
3.057500000000e+01 6.999782156504e-01 
3.057500000000e+01 6.999782156504e-01 
3.057500000000e+01 6.999782156504e-01 
3.060000000000e+01 6.928185651596e-01 
3.060000000000e+01 6.928185651596e-01 
3.060000000000e+01 6.928185651596e-01 
3.062500000000e+01 6.859477139679e-01 
3.062500000000e+01 6.859477139679e-01 
3.062500000000e+01 6.859477139679e-01 
3.065000000000e+01 6.793470165436e-01 
3.065000000000e+01 6.793470165436e-01 
3.065000000000e+01 6.793470165436e-01 
3.067500000000e+01 6.729993909360e-01 
3.067500000000e+01 6.729993909360e-01 
3.067500000000e+01 6.729993909360e-01 
3.070000000000e+01 6.668891672206e-01 
3.070000000000e+01 6.668891672206e-01 
3.070000000000e+01 6.668891672206e-01 
3.072500000000e+01 6.610019510587e-01 
3.072500000000e+01 6.610019510587e-01 
3.072500000000e+01 6.610019510587e-01 
3.075000000000e+01 6.553245011865e-01 
3.075000000000e+01 6.553245011865e-01 
3.075000000000e+01 6.553245011865e-01 
3.077500000000e+01 6.498446195878e-01 
3.077500000000e+01 6.498446195878e-01 
3.077500000000e+01 6.498446195878e-01 
3.080000000000e+01 6.445510531188e-01 
3.080000000000e+01 6.445510531188e-01 
3.080000000000e+01 6.445510531188e-01 
3.082500000000e+01 6.394334054150e-01 
3.082500000000e+01 6.394334054150e-01 
3.082500000000e+01 6.394334054150e-01 
3.085000000000e+01 6.344820579917e-01 
3.085000000000e+01 6.344820579917e-01 
3.085000000000e+01 6.344820579917e-01 
3.087500000000e+01 6.296880995462e-01 
3.087500000000e+01 6.296880995462e-01 
3.087500000000e+01 6.296880995462e-01 
3.090000000000e+01 6.250432625624e-01 
3.090000000000e+01 6.250432625624e-01 
3.090000000000e+01 6.250432625624e-01 
3.092500000000e+01 6.205398664126e-01 
3.092500000000e+01 6.205398664126e-01 
3.092500000000e+01 6.205398664126e-01 
3.095000000000e+01 6.161707662369e-01 
3.095000000000e+01 6.161707662369e-01 
3.095000000000e+01 6.161707662369e-01 
3.097500000000e+01 6.119293069613e-01 
3.097500000000e+01 6.119293069613e-01 
3.097500000000e+01 6.119293069613e-01 
3.100000000000e+01 6.078092818871e-01 
3.100000000000e+01 6.078092818871e-01 
3.100000000000e+01 6.078092818871e-01 
3.102500000000e+01 6.038048953494e-01 
3.102500000000e+01 6.038048953494e-01 
3.102500000000e+01 6.038048953494e-01 
3.105000000000e+01 5.999107290013e-01 
3.105000000000e+01 5.999107290013e-01 
3.105000000000e+01 5.999107290013e-01 
3.107500000000e+01 5.961217113309e-01 
3.107500000000e+01 5.961217113309e-01 
3.107500000000e+01 5.961217113309e-01 
3.110000000000e+01 5.924330900627e-01 
3.110000000000e+01 5.924330900627e-01 
3.110000000000e+01 5.924330900627e-01 
3.112500000000e+01 5.888404071392e-01 
3.112500000000e+01 5.888404071392e-01 
3.112500000000e+01 5.888404071392e-01 
3.115000000000e+01 5.853394760078e-01 
3.115000000000e+01 5.853394760078e-01 
3.115000000000e+01 5.853394760078e-01 
3.117500000000e+01 5.819263609758e-01 
3.117500000000e+01 5.819263609758e-01 
3.117500000000e+01 5.819263609758e-01 
3.120000000000e+01 5.785973584173e-01 
3.120000000000e+01 5.785973584173e-01 
3.120000000000e+01 5.785973584173e-01 
3.122500000000e+01 5.753489796460e-01 
3.122500000000e+01 5.753489796460e-01 
3.122500000000e+01 5.753489796460e-01 
3.125000000000e+01 5.721779352840e-01 
3.125000000000e+01 5.721779352840e-01 
3.125000000000e+01 5.721779352840e-01 
3.127500000000e+01 5.690811209785e-01 
3.127500000000e+01 5.690811209785e-01 
3.127500000000e+01 5.690811209785e-01 
3.130000000000e+01 5.660556043336e-01 
3.130000000000e+01 5.660556043336e-01 
3.130000000000e+01 5.660556043336e-01 
3.132500000000e+01 5.630986129391e-01 
3.132500000000e+01 5.630986129391e-01 
3.132500000000e+01 5.630986129391e-01 
3.135000000000e+01 5.602075233904e-01 
3.135000000000e+01 5.602075233904e-01 
3.135000000000e+01 5.602075233904e-01 
3.137500000000e+01 5.573798512060e-01 
3.137500000000e+01 5.573798512060e-01 
3.137500000000e+01 5.573798512060e-01 
3.140000000000e+01 5.546132415581e-01 
3.140000000000e+01 5.546132415581e-01 
3.140000000000e+01 5.546132415581e-01 
3.142500000000e+01 5.519054607414e-01 
3.142500000000e+01 5.519054607414e-01 
3.142500000000e+01 5.519054607414e-01 
3.145000000000e+01 5.492543883110e-01 
3.145000000000e+01 5.492543883110e-01 
3.145000000000e+01 5.492543883110e-01 
3.147500000000e+01 5.466580098318e-01 
3.147500000000e+01 5.466580098318e-01 
3.147500000000e+01 5.466580098318e-01 
3.150000000000e+01 5.441144101810e-01 
3.150000000000e+01 5.441144101810e-01 
3.150000000000e+01 5.441144101810e-01 
3.152500000000e+01 5.416217673588e-01 
3.152500000000e+01 5.416217673588e-01 
3.152500000000e+01 5.416217673588e-01 
3.155000000000e+01 5.391783467591e-01 
3.155000000000e+01 5.391783467591e-01 
3.155000000000e+01 5.391783467591e-01 
3.157500000000e+01 5.367824958643e-01 
3.157500000000e+01 5.367824958643e-01 
3.157500000000e+01 5.367824958643e-01 
3.160000000000e+01 5.344326393247e-01 
3.160000000000e+01 5.344326393247e-01 
3.160000000000e+01 5.344326393247e-01 
3.162500000000e+01 5.321272743928e-01 
3.162500000000e+01 5.321272743928e-01 
3.162500000000e+01 5.321272743928e-01 
3.165000000000e+01 5.298649666811e-01 
3.165000000000e+01 5.298649666811e-01 
3.165000000000e+01 5.298649666811e-01 
3.167500000000e+01 5.276443462180e-01 
3.167500000000e+01 5.276443462180e-01 
3.167500000000e+01 5.276443462180e-01 
3.170000000000e+01 5.254641037767e-01 
3.170000000000e+01 5.254641037767e-01 
3.170000000000e+01 5.254641037767e-01 
3.172500000000e+01 5.233229874560e-01 
3.172500000000e+01 5.233229874560e-01 
3.172500000000e+01 5.233229874560e-01 
3.175000000000e+01 5.212197994921e-01 
3.175000000000e+01 5.212197994921e-01 
3.175000000000e+01 5.212197994921e-01 
3.177500000000e+01 5.191533932842e-01 
3.177500000000e+01 5.191533932842e-01 
3.177500000000e+01 5.191533932842e-01 
3.180000000000e+01 5.171226706164e-01 
3.180000000000e+01 5.171226706164e-01 
3.180000000000e+01 5.171226706164e-01 
3.182500000000e+01 5.151265790614e-01 
3.182500000000e+01 5.151265790614e-01 
3.182500000000e+01 5.151265790614e-01 
3.185000000000e+01 5.131641095520e-01 
3.185000000000e+01 5.131641095520e-01 
3.185000000000e+01 5.131641095520e-01 
3.187500000000e+01 5.112342941078e-01 
3.187500000000e+01 5.112342941078e-01 
3.187500000000e+01 5.112342941078e-01 
3.190000000000e+01 5.093362037054e-01 
3.190000000000e+01 5.093362037054e-01 
3.190000000000e+01 5.093362037054e-01 
3.192500000000e+01 5.074689462822e-01 
3.192500000000e+01 5.074689462822e-01 
3.192500000000e+01 5.074689462822e-01 
3.195000000000e+01 5.056316648631e-01 
3.195000000000e+01 5.056316648631e-01 
3.195000000000e+01 5.056316648631e-01 
3.197500000000e+01 5.038235358020e-01 
3.197500000000e+01 5.038235358020e-01 
3.197500000000e+01 5.038235358020e-01 
3.200000000000e+01 5.017164208323e-01 
3.200000000000e+01 5.017184003301e-01 
3.200000000000e+01 5.017174111860e-01 
3.260000000000e+01 4.657507139226e-01 
3.260100034228e+01 4.656988160053e-01 
3.260200068457e+01 4.656469423196e-01 
3.320000000000e+01 4.393217404307e-01 
3.320200068457e+01 4.392434394628e-01 
3.320400136913e+01 4.391652012664e-01 
3.380000000000e+01 4.185654631114e-01 
3.380300102685e+01 4.184717926167e-01 
3.380600205370e+01 4.183782179746e-01 
3.440000000000e+01 4.016548661757e-01 
3.440400136913e+01 4.015518148891e-01 
3.440800273827e+01 4.014488856502e-01 
3.500000000000e+01 3.874896971004e-01 
3.500500171142e+01 3.873807535972e-01 
3.501000342283e+01 3.872719524945e-01 
 TITLE = "Profiles along polylines"
 VARIABLES = "DIST" "SATURATION1" 
 ZONE T="TIME=1.797693134862e+308"
0.000000000000e+00 1.000000000000e+00 
5.001711417361e-03 1.000000000000e+00 
1.000342283472e-02 1.000000000000e+00 
9.999999999997e-01 1.000000000000e+00 
1.004834987703e+00 1.000000000000e+00 
1.009669975407e+00 1.000000000000e+00 
1.999999999999e+00 1.000000000000e+00 
2.004668263989e+00 1.000000000000e+00 
2.009336527978e+00 1.000000000000e+00 
3.000000000000e+00 1.000000000000e+00 
3.004501540275e+00 1.000000000000e+00 
3.009003080551e+00 1.000000000000e+00 
4.000000000000e+00 1.000000000000e+00 
4.004334816561e+00 1.000000000000e+00 
4.008669633123e+00 1.000000000000e+00 
4.999999999999e+00 1.000000000000e+00 
5.004168092847e+00 1.000000000000e+00 
5.008336185694e+00 1.000000000000e+00 
5.999999999998e+00 1.000000000000e+00 
6.004001369132e+00 1.000000000000e+00 
6.008002738266e+00 1.000000000000e+00 
6.999999999997e+00 1.000000000000e+00 
7.003834645417e+00 1.000000000000e+00 
7.007669290837e+00 1.000000000000e+00 
7.999999999996e+00 1.000000000000e+00 
8.003667921702e+00 1.000000000000e+00 
8.007335843408e+00 1.000000000000e+00 
8.999999999992e+00 1.000000000000e+00 
9.003501197985e+00 1.000000000000e+00 
9.007002395977e+00 1.000000000000e+00 
9.999999999989e+00 1.000000000000e+00 
1.000333447427e+01 1.000000000000e+00 
1.000666894855e+01 1.000000000000e+00 
1.099999999998e+01 1.000000000000e+00 
1.100316775055e+01 1.000000000000e+00 
1.100633550111e+01 1.000000000000e+00 
1.199999999998e+01 1.000000000000e+00 
1.200300102683e+01 1.000000000000e+00 
1.200600205368e+01 1.000000000000e+00 
1.299999999998e+01 1.000000000000e+00 
1.300283430311e+01 1.000000000000e+00 
1.300566860625e+01 1.000000000000e+00 
1.399999999997e+01 1.000000000000e+00 
1.400266757940e+01 1.000000000000e+00 
1.400533515882e+01 1.000000000000e+00 
1.499999999997e+01 1.000000000000e+00 
1.500250085568e+01 1.000000000000e+00 
1.500500171139e+01 1.000000000000e+00 
1.599999999997e+01 1.000000000000e+00 
1.600233413197e+01 1.000000000000e+00 
1.600466826396e+01 1.000000000000e+00 
1.699999999997e+01 1.000000000000e+00 
1.700216740825e+01 1.000000000000e+00 
1.700433481654e+01 1.000000000000e+00 
1.799999999998e+01 1.000000000000e+00 
1.800200068454e+01 1.000000000000e+00 
1.800400136911e+01 1.000000000000e+00 
1.899999999998e+01 1.000000000000e+00 
1.900183396083e+01 1.000000000000e+00 
1.900366792168e+01 1.000000000000e+00 
1.999999999998e+01 1.000000000000e+00 
2.000166723712e+01 1.000000000000e+00 
2.000333447426e+01 1.000000000000e+00 
2.099999999998e+01 1.000000000000e+00 
2.100150051341e+01 1.000000000000e+00 
2.100300102683e+01 1.000000000000e+00 
2.199999999998e+01 1.000000000000e+00 
2.200133378969e+01 1.000000000000e+00 
2.200266757941e+01 1.000000000000e+00 
2.299999999999e+01 1.000000000000e+00 
2.300116706598e+01 1.000000000000e+00 
2.300233413198e+01 1.000000000000e+00 
2.399999999999e+01 1.000000000000e+00 
2.400100034227e+01 1.000000000000e+00 
2.400200068455e+01 1.000000000000e+00 
2.499999999999e+01 1.000000000000e+00 
2.500083361856e+01 1.000000000000e+00 
2.500166723713e+01 1.000000000000e+00 
2.599999999999e+01 1.000000000000e+00 
2.600066689485e+01 1.000000000000e+00 
2.600133378970e+01 1.000000000000e+00 
2.699999999999e+01 1.000000000000e+00 
2.700050017114e+01 1.000000000000e+00 
2.700100034228e+01 1.000000000000e+00 
2.800000000000e+01 1.000000000000e+00 
2.800033344742e+01 1.000000000000e+00 
2.800066689485e+01 1.000000000000e+00 
2.900000000000e+01 1.000000000000e+00 
2.900016672371e+01 1.000000000000e+00 
2.900033344743e+01 1.000000000000e+00 
3.000000000000e+01 1.000000000000e+00 
3.000000000000e+01 9.999801108549e-01 
3.000000000000e+01 1.000000000000e+00 
3.002500000000e+01 9.878524823279e-01 
3.002500000000e+01 1.000000000000e+00 
3.002500000000e+01 1.000000000000e+00 
3.005000000000e+01 9.699534117224e-01 
3.005000000000e+01 9.856959486465e-01 
3.005000000000e+01 9.976785966781e-01 
3.007500000000e+01 9.814779494304e-01 
3.007500000000e+01 9.509762469855e-01 
3.007500000000e+01 9.675363696640e-01 
3.010000000000e+01 9.483703211876e-01 
3.010000000000e+01 9.319428899068e-01 
3.010000000000e+01 9.629814064604e-01 
3.012500000000e+01 9.437861619677e-01 
3.012500000000e+01 9.292199987845e-01 
3.012500000000e+01 9.133841061874e-01 
3.015000000000e+01 9.247559906876e-01 
3.015000000000e+01 8.955597510037e-01 
3.015000000000e+01 9.105874755142e-01 
3.017500000000e+01 8.927168165183e-01 
3.017500000000e+01 9.063152261126e-01 
3.017500000000e+01 8.785847540763e-01 
3.020000000000e+01 8.886669253134e-01 
3.020000000000e+01 8.624939994953e-01 
3.020000000000e+01 8.757136633962e-01 
3.022500000000e+01 8.718943213034e-01 
3.022500000000e+01 8.596072082939e-01 
3.022500000000e+01 8.472781096884e-01 
3.025000000000e+01 8.443844731384e-01 
3.025000000000e+01 8.560143544244e-01 
3.025000000000e+01 8.329038805235e-01 
3.027500000000e+01 8.300099134316e-01 
3.027500000000e+01 8.410075559901e-01 
3.027500000000e+01 8.193261516539e-01 
3.030000000000e+01 8.268352180234e-01 
3.030000000000e+01 8.064947329029e-01 
3.030000000000e+01 8.164368079070e-01 
3.032500000000e+01 7.943584156025e-01 
3.032500000000e+01 8.134493852759e-01 
3.032500000000e+01 8.036138976882e-01 
3.035000000000e+01 7.828672428288e-01 
3.035000000000e+01 8.007986738257e-01 
3.035000000000e+01 7.914892217450e-01 
3.037500000000e+01 7.800122773628e-01 
3.037500000000e+01 7.719737330726e-01 
3.037500000000e+01 7.888316183265e-01 
3.040000000000e+01 7.774985401578e-01 
3.040000000000e+01 7.691351742565e-01 
3.040000000000e+01 7.616334748541e-01 
3.042500000000e+01 7.588131845480e-01 
3.042500000000e+01 7.667525265803e-01 
3.042500000000e+01 7.518053461082e-01 
3.045000000000e+01 7.490049331959e-01 
3.045000000000e+01 7.565498768868e-01 
3.045000000000e+01 7.424515137927e-01 
3.047500000000e+01 7.396723786404e-01 
3.047500000000e+01 7.468502324405e-01 
3.047500000000e+01 7.335373092461e-01 
3.050000000000e+01 7.376165235425e-01 
3.050000000000e+01 7.307806756331e-01 
3.050000000000e+01 7.250310379420e-01 
3.052500000000e+01 7.222979766414e-01 
3.052500000000e+01 7.169037594043e-01 
3.052500000000e+01 7.288148147730e-01 
3.055000000000e+01 7.204140988077e-01 
3.055000000000e+01 7.091290587845e-01 
3.055000000000e+01 7.141952061491e-01 
3.057500000000e+01 7.064458284168e-01 
3.057500000000e+01 7.123860690561e-01 
3.057500000000e+01 7.016828226844e-01 
3.060000000000e+01 6.945430262431e-01 
3.060000000000e+01 7.047048892084e-01 
3.060000000000e+01 6.990256206772e-01 
3.062500000000e+01 6.973469701228e-01 
3.062500000000e+01 6.919124583832e-01 
3.062500000000e+01 6.876895350525e-01 
3.065000000000e+01 6.811039233437e-01 
3.065000000000e+01 6.850861158087e-01 
3.065000000000e+01 6.902907597142e-01 
3.067500000000e+01 6.785280832712e-01 
3.067500000000e+01 6.747693086132e-01 
3.067500000000e+01 6.835165485615e-01 
3.070000000000e+01 6.686702021198e-01 
3.070000000000e+01 6.722214010278e-01 
3.070000000000e+01 6.770062921484e-01 
3.072500000000e+01 6.627923742762e-01 
3.072500000000e+01 6.707434495903e-01 
3.072500000000e+01 6.661505091974e-01 
3.075000000000e+01 6.571227337754e-01 
3.075000000000e+01 6.647128380886e-01 
3.075000000000e+01 6.603011126855e-01 
3.077500000000e+01 6.546600599134e-01 
3.077500000000e+01 6.516492192206e-01 
3.077500000000e+01 6.589005020390e-01 
3.080000000000e+01 6.532935955778e-01 
3.080000000000e+01 6.492152341021e-01 
3.080000000000e+01 6.463607020508e-01 
3.082500000000e+01 6.412468996065e-01 
3.082500000000e+01 6.439554558853e-01 
3.082500000000e+01 6.478802773240e-01 
3.085000000000e+01 6.388703960887e-01 
3.085000000000e+01 6.426496161094e-01 
3.085000000000e+01 6.362982972659e-01 
3.087500000000e+01 6.315060786723e-01 
3.087500000000e+01 6.339504975986e-01 
3.087500000000e+01 6.375915065554e-01 
3.090000000000e+01 6.326965934488e-01 
3.090000000000e+01 6.268620631668e-01 
3.090000000000e+01 6.291869053374e-01 
3.092500000000e+01 6.279562039595e-01 
3.092500000000e+01 6.245714034570e-01 
3.092500000000e+01 6.223586496329e-01 
3.095000000000e+01 6.200963589555e-01 
3.095000000000e+01 6.179887660418e-01 
3.095000000000e+01 6.233622868383e-01 
3.097500000000e+01 6.157546710063e-01 
3.097500000000e+01 6.137458240704e-01 
3.097500000000e+01 6.189073578241e-01 
3.100000000000e+01 6.115397253682e-01 
3.100000000000e+01 6.145844505731e-01 
3.100000000000e+01 6.096236782299e-01 
3.102500000000e+01 6.056165890119e-01 
3.102500000000e+01 6.074453533175e-01 
3.102500000000e+01 6.103870724983e-01 
3.105000000000e+01 6.017191896116e-01 
3.105000000000e+01 6.063091649803e-01 
3.105000000000e+01 6.034657946064e-01 
3.107500000000e+01 5.979264558425e-01 
3.107500000000e+01 5.995956640082e-01 
3.107500000000e+01 6.023450674688e-01 
3.110000000000e+01 5.958299210630e-01 
3.110000000000e+01 5.984894850517e-01 
3.110000000000e+01 5.942336788990e-01 
3.112500000000e+01 5.906364406632e-01 
3.112500000000e+01 5.921638426804e-01 
3.112500000000e+01 5.947374591180e-01 
3.115000000000e+01 5.871305912902e-01 
3.115000000000e+01 5.885929982959e-01 
3.115000000000e+01 5.910843407827e-01 
3.117500000000e+01 5.875257667814e-01 
3.117500000000e+01 5.837122288314e-01 
3.117500000000e+01 5.851132273135e-01 
3.120000000000e+01 5.803776806879e-01 
3.120000000000e+01 5.840576375748e-01 
3.120000000000e+01 5.817206185956e-01 
3.122500000000e+01 5.784114917904e-01 
3.122500000000e+01 5.806760974353e-01 
3.122500000000e+01 5.771234867063e-01 
3.125000000000e+01 5.739463837521e-01 
3.125000000000e+01 5.751823803106e-01 
3.125000000000e+01 5.773775163096e-01 
3.127500000000e+01 5.741584732805e-01 
3.127500000000e+01 5.708432916122e-01 
3.127500000000e+01 5.720300157955e-01 
3.130000000000e+01 5.689513139115e-01 
3.130000000000e+01 5.710157414636e-01 
3.130000000000e+01 5.678113000972e-01 
3.132500000000e+01 5.648476572253e-01 
3.132500000000e+01 5.659433613576e-01 
3.132500000000e+01 5.679462741996e-01 
3.135000000000e+01 5.649471924147e-01 
3.135000000000e+01 5.619497583852e-01 
3.135000000000e+01 5.630034039603e-01 
3.137500000000e+01 5.591151363836e-01 
3.137500000000e+01 5.601288357525e-01 
3.137500000000e+01 5.620157730339e-01 
3.140000000000e+01 5.573171889441e-01 
3.140000000000e+01 5.563414522958e-01 
3.140000000000e+01 5.591494383502e-01 
3.142500000000e+01 5.545661247001e-01 
3.142500000000e+01 5.563457462553e-01 
3.142500000000e+01 5.536264870431e-01 
3.145000000000e+01 5.536023812552e-01 
3.145000000000e+01 5.518734246522e-01 
3.145000000000e+01 5.509681336329e-01 
3.147500000000e+01 5.483643899989e-01 
3.147500000000e+01 5.509171461954e-01 
3.147500000000e+01 5.492369830759e-01 
3.150000000000e+01 5.482879546325e-01 
3.150000000000e+01 5.466547996748e-01 
3.150000000000e+01 5.458133523895e-01 
3.152500000000e+01 5.441249729155e-01 
3.152500000000e+01 5.433132092560e-01 
3.152500000000e+01 5.457128237941e-01 
3.155000000000e+01 5.416456938672e-01 
3.155000000000e+01 5.431898680736e-01 
3.155000000000e+01 5.408622355955e-01 
3.157500000000e+01 5.384587877111e-01 
3.157500000000e+01 5.392152404999e-01 
3.157500000000e+01 5.407172930149e-01 
3.160000000000e+01 5.382933897415e-01 
3.160000000000e+01 5.368319724029e-01 
3.160000000000e+01 5.361012983528e-01 
3.162500000000e+01 5.344943258877e-01 
3.162500000000e+01 5.337882722071e-01 
3.162500000000e+01 5.359165297954e-01 
3.165000000000e+01 5.315182817071e-01 
3.165000000000e+01 5.335851603480e-01 
3.165000000000e+01 5.322008094427e-01 
3.167500000000e+01 5.299499995109e-01 
3.167500000000e+01 5.292899631353e-01 
3.167500000000e+01 5.312977997541e-01 
3.170000000000e+01 5.271020129968e-01 
3.170000000000e+01 5.290530334189e-01 
3.170000000000e+01 5.277405365635e-01 
3.172500000000e+01 5.249531846405e-01 
3.172500000000e+01 5.255711214458e-01 
3.172500000000e+01 5.268495099539e-01 
3.175000000000e+01 5.234405119734e-01 
3.175000000000e+01 5.246859375968e-01 
3.175000000000e+01 5.228422851081e-01 
3.177500000000e+01 5.207681721944e-01 
3.177500000000e+01 5.213475197591e-01 
3.177500000000e+01 5.225610808759e-01 
3.180000000000e+01 5.204737574985e-01 
3.180000000000e+01 5.187297517010e-01 
3.180000000000e+01 5.192910072522e-01 
3.182500000000e+01 5.167259748694e-01 
3.182500000000e+01 5.184228354464e-01 
3.182500000000e+01 5.172698849727e-01 
3.185000000000e+01 5.147558359797e-01 
3.185000000000e+01 5.152831089280e-01 
3.185000000000e+01 5.164072302617e-01 
3.187500000000e+01 5.133296781956e-01 
3.187500000000e+01 5.144259025099e-01 
3.187500000000e+01 5.128183701029e-01 
3.190000000000e+01 5.109126509939e-01 
3.190000000000e+01 5.114086326604e-01 
3.190000000000e+01 5.124778554057e-01 
3.192500000000e+01 5.095190508956e-01 
3.192500000000e+01 5.105621325886e-01 
3.192500000000e+01 5.090377891174e-01 
3.195000000000e+01 5.071929297941e-01 
3.195000000000e+01 5.076600481756e-01 
3.195000000000e+01 5.086778160399e-01 
3.197500000000e+01 5.058307746125e-01 
3.197500000000e+01 5.053772514614e-01 
3.197500000000e+01 5.068240241281e-01 
3.200000000000e+01 5.046598973300e-01 
3.200000000000e+01 5.032626745654e-01 
3.200000000000e+01 5.036984842227e-01 
3.260000000000e+01 4.671255506213e-01 
3.260100034228e+01 4.673034429755e-01 
3.260200068457e+01 4.678098339617e-01 
3.320000000000e+01 4.405475037014e-01 
3.320200068457e+01 4.406081445223e-01 
3.320400136913e+01 4.408856890427e-01 
3.380000000000e+01 4.196570825579e-01 
3.380300102685e+01 4.196552760574e-01 
3.380600205370e+01 4.198053090400e-01 
3.440000000000e+01 4.026202847964e-01 
3.440400136913e+01 4.025834880485e-01 
3.440800273827e+01 4.026603873964e-01 
3.500000000000e+01 3.883298715194e-01 
3.500500171142e+01 3.882739695421e-01 
3.501000342283e+01 3.883104755939e-01 
