 TITLE = "Profiles along polylines"
 VARIABLES = "DIST" "SATURATION1" 
 ZONE T="TIME=0.000000000000e+00"
1.228427164239e+01 1.000000000000e+00 
1.234418518216e+01 1.000000000000e+00 
1.240409872193e+01 1.000000000000e+00 
1.246401226171e+01 1.000000000000e+00 
1.252392580148e+01 1.000000000000e+00 
1.287479592097e+01 1.000000000000e+00 
1.293271234275e+01 1.000000000000e+00 
1.299062876454e+01 1.000000000000e+00 
1.304854518632e+01 1.000000000000e+00 
1.310646160810e+01 1.000000000000e+00 
1.346532019956e+01 1.000000000000e+00 
1.352123950335e+01 1.000000000000e+00 
1.357715880714e+01 1.000000000000e+00 
1.363307811093e+01 1.000000000000e+00 
1.368899741472e+01 1.000000000000e+00 
1.405584447815e+01 1.000000000000e+00 
1.410976666394e+01 1.000000000000e+00 
1.416368884974e+01 1.000000000000e+00 
1.421761103554e+01 1.000000000000e+00 
1.427153322133e+01 1.000000000000e+00 
1.464636875673e+01 1.000000000000e+00 
1.469829382454e+01 1.000000000000e+00 
1.475021889234e+01 1.000000000000e+00 
1.480214396015e+01 1.000000000000e+00 
1.485406902795e+01 1.000000000000e+00 
1.523689303532e+01 1.000000000000e+00 
1.528682098513e+01 1.000000000000e+00 
1.533674893494e+01 1.000000000000e+00 
1.538667688476e+01 1.000000000000e+00 
1.543660483457e+01 1.000000000000e+00 
1.582741731391e+01 1.000000000000e+00 
1.587534814573e+01 1.000000000000e+00 
1.592327897755e+01 1.000000000000e+00 
1.597120980937e+01 1.000000000000e+00 
1.601914064119e+01 1.000000000000e+00 
1.641794159249e+01 1.000000000000e+00 
1.646387530632e+01 1.000000000000e+00 
1.650980902015e+01 1.000000000000e+00 
1.655574273398e+01 1.000000000000e+00 
1.660167644780e+01 1.000000000000e+00 
1.700846587108e+01 1.000000000000e+00 
1.705240246692e+01 1.000000000000e+00 
1.709633906275e+01 1.000000000000e+00 
1.714027565859e+01 1.000000000000e+00 
1.718421225442e+01 1.000000000000e+00 
1.759899014967e+01 1.000000000000e+00 
1.764092962751e+01 1.000000000000e+00 
1.768286910535e+01 1.000000000000e+00 
1.772480858319e+01 1.000000000000e+00 
1.776674806104e+01 1.000000000000e+00 
1.818951442825e+01 1.000000000000e+00 
1.822945678810e+01 1.000000000000e+00 
1.826939914795e+01 1.000000000000e+00 
1.830934150780e+01 1.000000000000e+00 
1.834928386765e+01 1.000000000000e+00 
1.878003870684e+01 1.000000000000e+00 
1.881798394870e+01 1.000000000000e+00 
1.885592919055e+01 1.000000000000e+00 
1.889387443241e+01 1.000000000000e+00 
1.893181967427e+01 1.000000000000e+00 
1.937056298543e+01 1.000000000000e+00 
1.940651110929e+01 1.000000000000e+00 
1.944245923315e+01 1.000000000000e+00 
1.947840735702e+01 1.000000000000e+00 
1.951435548088e+01 1.000000000000e+00 
1.996108726401e+01 1.000000000000e+00 
1.999503826988e+01 1.000000000000e+00 
2.002898927576e+01 1.000000000000e+00 
2.006294028163e+01 1.000000000000e+00 
2.009689128750e+01 1.000000000000e+00 
2.055161154260e+01 1.000000000000e+00 
2.058356543048e+01 1.000000000000e+00 
2.061551931836e+01 1.000000000000e+00 
2.064747320624e+01 1.000000000000e+00 
2.067942709412e+01 1.000000000000e+00 
2.114213582118e+01 1.000000000000e+00 
2.117209259107e+01 1.000000000000e+00 
2.120204936096e+01 1.000000000000e+00 
2.123200613084e+01 1.000000000000e+00 
2.126196290073e+01 1.000000000000e+00 
2.173266009977e+01 1.000000000000e+00 
2.176061975167e+01 1.000000000000e+00 
2.178857940356e+01 1.000000000000e+00 
2.181653905545e+01 1.000000000000e+00 
2.184449870735e+01 1.000000000000e+00 
2.232318437836e+01 1.000000000000e+00 
2.234914691226e+01 1.000000000000e+00 
2.237510944616e+01 1.000000000000e+00 
2.240107198007e+01 1.000000000000e+00 
2.242703451397e+01 1.000000000000e+00 
2.291370865695e+01 1.000000000000e+00 
2.293767407286e+01 1.000000000000e+00 
2.296163948877e+01 1.000000000000e+00 
2.298560490468e+01 1.000000000000e+00 
2.300957032059e+01 1.000000000000e+00 
2.350423293553e+01 1.000000000000e+00 
2.352620123345e+01 1.000000000000e+00 
2.354816953137e+01 1.000000000000e+00 
2.357013782929e+01 1.000000000000e+00 
2.359210612720e+01 1.000000000000e+00 
2.409475721412e+01 1.000000000000e+00 
2.411472839405e+01 1.000000000000e+00 
2.413469957397e+01 1.000000000000e+00 
2.415467075390e+01 1.000000000000e+00 
2.417464193382e+01 1.000000000000e+00 
2.468528149271e+01 1.000000000000e+00 
2.470325555464e+01 1.000000000000e+00 
2.472122961657e+01 1.000000000000e+00 
2.473920367851e+01 1.000000000000e+00 
2.475717774044e+01 1.000000000000e+00 
2.527580577130e+01 1.000000000000e+00 
2.529178271524e+01 1.000000000000e+00 
2.530775965918e+01 1.000000000000e+00 
2.532373660312e+01 1.000000000000e+00 
2.533971354706e+01 1.000000000000e+00 
2.586633004989e+01 1.000000000000e+00 
2.588030987583e+01 1.000000000000e+00 
2.589428970178e+01 1.000000000000e+00 
2.590826952773e+01 1.000000000000e+00 
2.592224935367e+01 1.000000000000e+00 
2.645685432847e+01 1.000000000000e+00 
2.646883703643e+01 1.000000000000e+00 
2.648081974438e+01 1.000000000000e+00 
2.649280245234e+01 1.000000000000e+00 
2.650478516029e+01 1.000000000000e+00 
2.704737860706e+01 1.000000000000e+00 
2.705736419702e+01 1.000000000000e+00 
2.706734978699e+01 1.000000000000e+00 
2.707733537695e+01 1.000000000000e+00 
2.708732096691e+01 1.000000000000e+00 
2.763790288565e+01 1.000000000000e+00 
2.764589135762e+01 1.000000000000e+00 
2.765387982959e+01 1.000000000000e+00 
2.766186830156e+01 1.000000000000e+00 
2.766985677353e+01 1.000000000000e+00 
2.822842716424e+01 1.000000000000e+00 
2.823441851821e+01 1.000000000000e+00 
2.824040987219e+01 1.000000000000e+00 
2.824640122617e+01 1.000000000000e+00 
2.825239258015e+01 1.000000000000e+00 
2.881895144282e+01 1.000000000000e+00 
2.882294567881e+01 1.000000000000e+00 
2.882693991479e+01 1.000000000000e+00 
2.883093415078e+01 1.000000000000e+00 
2.883492838676e+01 1.000000000000e+00 
2.940947572141e+01 1.000000000000e+00 
2.941147283940e+01 1.000000000000e+00 
2.941346995740e+01 1.000000000000e+00 
2.941546707539e+01 1.000000000000e+00 
2.941746419338e+01 1.000000000000e+00 
3.000000000000e+01 1.000000000000e+00 
3.000000000000e+01 1.000000000000e+00 
3.000000000000e+01 1.000000000000e+00 
3.000000000000e+01 1.000000000000e+00 
3.000000000000e+01 1.000000000000e+00 
3.002500000000e+01 9.876207709446e-01 
3.002500000000e+01 9.876207709446e-01 
3.002500000000e+01 9.876207709446e-01 
3.002500000000e+01 9.876207709446e-01 
3.002500000000e+01 9.876207709446e-01 
3.005000000000e+01 9.697756439369e-01 
3.005000000000e+01 9.697756439369e-01 
3.005000000000e+01 9.697756439369e-01 
3.005000000000e+01 9.697756439369e-01 
3.005000000000e+01 9.697756439369e-01 
3.007500000000e+01 9.507134089444e-01 
3.007500000000e+01 9.507134089444e-01 
3.007500000000e+01 9.507134089444e-01 
3.007500000000e+01 9.507134089444e-01 
3.007500000000e+01 9.507134089444e-01 
3.010000000000e+01 9.315621650298e-01 
3.010000000000e+01 9.315621650298e-01 
3.010000000000e+01 9.315621650298e-01 
3.010000000000e+01 9.315621650298e-01 
3.010000000000e+01 9.315621650298e-01 
3.012500000000e+01 9.128758324042e-01 
3.012500000000e+01 9.128758324042e-01 
3.012500000000e+01 9.128758324042e-01 
3.012500000000e+01 9.128758324042e-01 
3.012500000000e+01 9.128758324042e-01 
3.015000000000e+01 8.949248043380e-01 
3.015000000000e+01 8.949248043380e-01 
3.015000000000e+01 8.949248043380e-01 
3.015000000000e+01 8.949248043380e-01 
3.015000000000e+01 8.949248043380e-01 
3.017500000000e+01 8.778290027968e-01 
3.017500000000e+01 8.778290027968e-01 
3.017500000000e+01 8.778290027968e-01 
3.017500000000e+01 8.778290027968e-01 
3.017500000000e+01 8.778290027968e-01 
3.020000000000e+01 8.616255702900e-01 
3.020000000000e+01 8.616255702900e-01 
3.020000000000e+01 8.616255702900e-01 
3.020000000000e+01 8.616255702900e-01 
3.020000000000e+01 8.616255702900e-01 
3.022500000000e+01 8.463059583920e-01 
3.022500000000e+01 8.463059583920e-01 
3.022500000000e+01 8.463059583920e-01 
3.022500000000e+01 8.463059583920e-01 
3.022500000000e+01 8.463059583920e-01 
3.025000000000e+01 8.318370344398e-01 
3.025000000000e+01 8.318370344398e-01 
3.025000000000e+01 8.318370344398e-01 
3.025000000000e+01 8.318370344398e-01 
3.025000000000e+01 8.318370344398e-01 
3.027500000000e+01 8.181733156316e-01 
3.027500000000e+01 8.181733156316e-01 
3.027500000000e+01 8.181733156316e-01 
3.027500000000e+01 8.181733156316e-01 
3.027500000000e+01 8.181733156316e-01 
3.030000000000e+01 8.052640970350e-01 
3.030000000000e+01 8.052640970350e-01 
3.030000000000e+01 8.052640970350e-01 
3.030000000000e+01 8.052640970350e-01 
3.030000000000e+01 8.052640970350e-01 
3.032500000000e+01 7.930575753856e-01 
3.032500000000e+01 7.930575753856e-01 
3.032500000000e+01 7.930575753856e-01 
3.032500000000e+01 7.930575753856e-01 
3.032500000000e+01 7.930575753856e-01 
3.035000000000e+01 7.815031815402e-01 
3.035000000000e+01 7.815031815402e-01 
3.035000000000e+01 7.815031815402e-01 
3.035000000000e+01 7.815031815402e-01 
3.035000000000e+01 7.815031815402e-01 
3.037500000000e+01 7.705528376764e-01 
3.037500000000e+01 7.705528376764e-01 
3.037500000000e+01 7.705528376764e-01 
3.037500000000e+01 7.705528376764e-01 
3.037500000000e+01 7.705528376764e-01 
3.040000000000e+01 7.601615689674e-01 
3.040000000000e+01 7.601615689674e-01 
3.040000000000e+01 7.601615689674e-01 
3.040000000000e+01 7.601615689674e-01 
3.040000000000e+01 7.601615689674e-01 
3.042500000000e+01 7.502877306002e-01 
3.042500000000e+01 7.502877306002e-01 
3.042500000000e+01 7.502877306002e-01 
3.042500000000e+01 7.502877306002e-01 
3.042500000000e+01 7.502877306002e-01 
3.045000000000e+01 7.408930096824e-01 
3.045000000000e+01 7.408930096824e-01 
3.045000000000e+01 7.408930096824e-01 
3.045000000000e+01 7.408930096824e-01 
3.045000000000e+01 7.408930096824e-01 
3.047500000000e+01 7.319422999608e-01 
3.047500000000e+01 7.319422999608e-01 
3.047500000000e+01 7.319422999608e-01 
3.047500000000e+01 7.319422999608e-01 
3.047500000000e+01 7.319422999608e-01 
3.050000000000e+01 7.234035093991e-01 
3.050000000000e+01 7.234035093991e-01 
3.050000000000e+01 7.234035093991e-01 
3.050000000000e+01 7.234035093991e-01 
3.050000000000e+01 7.234035093991e-01 
3.052500000000e+01 7.152473371957e-01 
3.052500000000e+01 7.152473371957e-01 
3.052500000000e+01 7.152473371957e-01 
3.052500000000e+01 7.152473371957e-01 
3.052500000000e+01 7.152473371957e-01 
3.055000000000e+01 7.074470422112e-01 
3.055000000000e+01 7.074470422112e-01 
3.055000000000e+01 7.074470422112e-01 
3.055000000000e+01 7.074470422112e-01 
3.055000000000e+01 7.074470422112e-01 
3.057500000000e+01 6.999782156504e-01 
3.057500000000e+01 6.999782156504e-01 
3.057500000000e+01 6.999782156504e-01 
3.057500000000e+01 6.999782156504e-01 
3.057500000000e+01 6.999782156504e-01 
3.060000000000e+01 6.928185651596e-01 
3.060000000000e+01 6.928185651596e-01 
3.060000000000e+01 6.928185651596e-01 
3.060000000000e+01 6.928185651596e-01 
3.060000000000e+01 6.928185651596e-01 
3.062500000000e+01 6.859477139679e-01 
3.062500000000e+01 6.859477139679e-01 
3.062500000000e+01 6.859477139679e-01 
3.062500000000e+01 6.859477139679e-01 
3.062500000000e+01 6.859477139679e-01 
3.065000000000e+01 6.793470165436e-01 
3.065000000000e+01 6.793470165436e-01 
3.065000000000e+01 6.793470165436e-01 
3.065000000000e+01 6.793470165436e-01 
3.065000000000e+01 6.793470165436e-01 
3.067500000000e+01 6.729993909360e-01 
3.067500000000e+01 6.729993909360e-01 
3.067500000000e+01 6.729993909360e-01 
3.067500000000e+01 6.729993909360e-01 
3.067500000000e+01 6.729993909360e-01 
3.070000000000e+01 6.668891672206e-01 
3.070000000000e+01 6.668891672206e-01 
3.070000000000e+01 6.668891672206e-01 
3.070000000000e+01 6.668891672206e-01 
3.070000000000e+01 6.668891672206e-01 
3.072500000000e+01 6.610019510587e-01 
3.072500000000e+01 6.610019510587e-01 
3.072500000000e+01 6.610019510587e-01 
3.072500000000e+01 6.610019510587e-01 
3.072500000000e+01 6.610019510587e-01 
3.075000000000e+01 6.553245011865e-01 
3.075000000000e+01 6.553245011865e-01 
3.075000000000e+01 6.553245011865e-01 
3.075000000000e+01 6.553245011865e-01 
3.075000000000e+01 6.553245011865e-01 
3.077500000000e+01 6.498446195878e-01 
3.077500000000e+01 6.498446195878e-01 
3.077500000000e+01 6.498446195878e-01 
3.077500000000e+01 6.498446195878e-01 
3.077500000000e+01 6.498446195878e-01 
3.080000000000e+01 6.445510531188e-01 
3.080000000000e+01 6.445510531188e-01 
3.080000000000e+01 6.445510531188e-01 
3.080000000000e+01 6.445510531188e-01 
3.080000000000e+01 6.445510531188e-01 
3.082500000000e+01 6.394334054150e-01 
3.082500000000e+01 6.394334054150e-01 
3.082500000000e+01 6.394334054150e-01 
3.082500000000e+01 6.394334054150e-01 
3.082500000000e+01 6.394334054150e-01 
3.085000000000e+01 6.344820579917e-01 
3.085000000000e+01 6.344820579917e-01 
3.085000000000e+01 6.344820579917e-01 
3.085000000000e+01 6.344820579917e-01 
3.085000000000e+01 6.344820579917e-01 
3.087500000000e+01 6.296880995462e-01 
3.087500000000e+01 6.296880995462e-01 
3.087500000000e+01 6.296880995462e-01 
3.087500000000e+01 6.296880995462e-01 
3.087500000000e+01 6.296880995462e-01 
3.090000000000e+01 6.250432625624e-01 
3.090000000000e+01 6.250432625624e-01 
3.090000000000e+01 6.250432625624e-01 
3.090000000000e+01 6.250432625624e-01 
3.090000000000e+01 6.250432625624e-01 
3.092500000000e+01 6.205398664126e-01 
3.092500000000e+01 6.205398664126e-01 
3.092500000000e+01 6.205398664126e-01 
3.092500000000e+01 6.205398664126e-01 
3.092500000000e+01 6.205398664126e-01 
3.095000000000e+01 6.161707662369e-01 
3.095000000000e+01 6.161707662369e-01 
3.095000000000e+01 6.161707662369e-01 
3.095000000000e+01 6.161707662369e-01 
3.095000000000e+01 6.161707662369e-01 
3.097500000000e+01 6.119293069613e-01 
3.097500000000e+01 6.119293069613e-01 
3.097500000000e+01 6.119293069613e-01 
3.097500000000e+01 6.119293069613e-01 
3.097500000000e+01 6.119293069613e-01 
3.100000000000e+01 6.078092818871e-01 
3.100000000000e+01 6.078092818871e-01 
3.100000000000e+01 6.078092818871e-01 
3.100000000000e+01 6.078092818871e-01 
3.100000000000e+01 6.078092818871e-01 
3.102500000000e+01 6.038048953494e-01 
3.102500000000e+01 6.038048953494e-01 
3.102500000000e+01 6.038048953494e-01 
3.102500000000e+01 6.038048953494e-01 
3.102500000000e+01 6.038048953494e-01 
3.105000000000e+01 5.999107290013e-01 
3.105000000000e+01 5.999107290013e-01 
3.105000000000e+01 5.999107290013e-01 
3.105000000000e+01 5.999107290013e-01 
3.105000000000e+01 5.999107290013e-01 
3.107500000000e+01 5.961217113309e-01 
3.107500000000e+01 5.961217113309e-01 
3.107500000000e+01 5.961217113309e-01 
3.107500000000e+01 5.961217113309e-01 
3.107500000000e+01 5.961217113309e-01 
3.110000000000e+01 5.924330900627e-01 
3.110000000000e+01 5.924330900627e-01 
3.110000000000e+01 5.924330900627e-01 
3.110000000000e+01 5.924330900627e-01 
3.110000000000e+01 5.924330900627e-01 
3.112500000000e+01 5.888404071392e-01 
3.112500000000e+01 5.888404071392e-01 
3.112500000000e+01 5.888404071392e-01 
3.112500000000e+01 5.888404071392e-01 
3.112500000000e+01 5.888404071392e-01 
3.115000000000e+01 5.853394760078e-01 
3.115000000000e+01 5.853394760078e-01 
3.115000000000e+01 5.853394760078e-01 
3.115000000000e+01 5.853394760078e-01 
3.115000000000e+01 5.853394760078e-01 
3.117500000000e+01 5.819263609758e-01 
3.117500000000e+01 5.819263609758e-01 
3.117500000000e+01 5.819263609758e-01 
3.117500000000e+01 5.819263609758e-01 
3.117500000000e+01 5.819263609758e-01 
3.120000000000e+01 5.785973584173e-01 
3.120000000000e+01 5.785973584173e-01 
3.120000000000e+01 5.785973584173e-01 
3.120000000000e+01 5.785973584173e-01 
3.120000000000e+01 5.785973584173e-01 
3.122500000000e+01 5.753489796460e-01 
3.122500000000e+01 5.753489796460e-01 
3.122500000000e+01 5.753489796460e-01 
3.122500000000e+01 5.753489796460e-01 
3.122500000000e+01 5.753489796460e-01 
3.125000000000e+01 5.721779352840e-01 
3.125000000000e+01 5.721779352840e-01 
3.125000000000e+01 5.721779352840e-01 
3.125000000000e+01 5.721779352840e-01 
3.125000000000e+01 5.721779352840e-01 
3.127500000000e+01 5.690811209785e-01 
3.127500000000e+01 5.690811209785e-01 
3.127500000000e+01 5.690811209785e-01 
3.127500000000e+01 5.690811209785e-01 
3.127500000000e+01 5.690811209785e-01 
3.130000000000e+01 5.660556043336e-01 
3.130000000000e+01 5.660556043336e-01 
3.130000000000e+01 5.660556043336e-01 
3.130000000000e+01 5.660556043336e-01 
3.130000000000e+01 5.660556043336e-01 
3.132500000000e+01 5.630986129391e-01 
3.132500000000e+01 5.630986129391e-01 
3.132500000000e+01 5.630986129391e-01 
3.132500000000e+01 5.630986129391e-01 
3.132500000000e+01 5.630986129391e-01 
3.135000000000e+01 5.602075233904e-01 
3.135000000000e+01 5.602075233904e-01 
3.135000000000e+01 5.602075233904e-01 
3.135000000000e+01 5.602075233904e-01 
3.135000000000e+01 5.602075233904e-01 
3.137500000000e+01 5.573798512060e-01 
3.137500000000e+01 5.573798512060e-01 
3.137500000000e+01 5.573798512060e-01 
3.137500000000e+01 5.573798512060e-01 
3.137500000000e+01 5.573798512060e-01 
3.140000000000e+01 5.546132415581e-01 
3.140000000000e+01 5.546132415581e-01 
3.140000000000e+01 5.546132415581e-01 
3.140000000000e+01 5.546132415581e-01 
3.140000000000e+01 5.546132415581e-01 
3.142500000000e+01 5.519054607414e-01 
3.142500000000e+01 5.519054607414e-01 
3.142500000000e+01 5.519054607414e-01 
3.142500000000e+01 5.519054607414e-01 
3.142500000000e+01 5.519054607414e-01 
3.145000000000e+01 5.492543883110e-01 
3.145000000000e+01 5.492543883110e-01 
3.145000000000e+01 5.492543883110e-01 
3.145000000000e+01 5.492543883110e-01 
3.145000000000e+01 5.492543883110e-01 
3.147500000000e+01 5.466580098318e-01 
3.147500000000e+01 5.466580098318e-01 
3.147500000000e+01 5.466580098318e-01 
3.147500000000e+01 5.466580098318e-01 
3.147500000000e+01 5.466580098318e-01 
3.150000000000e+01 5.441144101810e-01 
3.150000000000e+01 5.441144101810e-01 
3.150000000000e+01 5.441144101810e-01 
3.150000000000e+01 5.441144101810e-01 
3.150000000000e+01 5.441144101810e-01 
3.152500000000e+01 5.416217673588e-01 
3.152500000000e+01 5.416217673588e-01 
3.152500000000e+01 5.416217673588e-01 
3.152500000000e+01 5.416217673588e-01 
3.152500000000e+01 5.416217673588e-01 
3.155000000000e+01 5.391783467591e-01 
3.155000000000e+01 5.391783467591e-01 
3.155000000000e+01 5.391783467591e-01 
3.155000000000e+01 5.391783467591e-01 
3.155000000000e+01 5.391783467591e-01 
3.157500000000e+01 5.367824958643e-01 
3.157500000000e+01 5.367824958643e-01 
3.157500000000e+01 5.367824958643e-01 
3.157500000000e+01 5.367824958643e-01 
3.157500000000e+01 5.367824958643e-01 
3.160000000000e+01 5.344326393247e-01 
3.160000000000e+01 5.344326393247e-01 
3.160000000000e+01 5.344326393247e-01 
3.160000000000e+01 5.344326393247e-01 
3.160000000000e+01 5.344326393247e-01 
3.162500000000e+01 5.321272743928e-01 
3.162500000000e+01 5.321272743928e-01 
3.162500000000e+01 5.321272743928e-01 
3.162500000000e+01 5.321272743928e-01 
3.162500000000e+01 5.321272743928e-01 
3.165000000000e+01 5.298649666811e-01 
3.165000000000e+01 5.298649666811e-01 
3.165000000000e+01 5.298649666811e-01 
3.165000000000e+01 5.298649666811e-01 
3.165000000000e+01 5.298649666811e-01 
3.167500000000e+01 5.276443462180e-01 
3.167500000000e+01 5.276443462180e-01 
3.167500000000e+01 5.276443462180e-01 
3.167500000000e+01 5.276443462180e-01 
3.167500000000e+01 5.276443462180e-01 
3.170000000000e+01 5.254641037767e-01 
3.170000000000e+01 5.254641037767e-01 
3.170000000000e+01 5.254641037767e-01 
3.170000000000e+01 5.254641037767e-01 
3.170000000000e+01 5.254641037767e-01 
3.172500000000e+01 5.233229874560e-01 
3.172500000000e+01 5.233229874560e-01 
3.172500000000e+01 5.233229874560e-01 
3.172500000000e+01 5.233229874560e-01 
3.172500000000e+01 5.233229874560e-01 
3.175000000000e+01 5.212197994921e-01 
3.175000000000e+01 5.212197994921e-01 
3.175000000000e+01 5.212197994921e-01 
3.175000000000e+01 5.212197994921e-01 
3.175000000000e+01 5.212197994921e-01 
3.177500000000e+01 5.191533932842e-01 
3.177500000000e+01 5.191533932842e-01 
3.177500000000e+01 5.191533932842e-01 
3.177500000000e+01 5.191533932842e-01 
3.177500000000e+01 5.191533932842e-01 
3.180000000000e+01 5.171226706164e-01 
3.180000000000e+01 5.171226706164e-01 
3.180000000000e+01 5.171226706164e-01 
3.180000000000e+01 5.171226706164e-01 
3.180000000000e+01 5.171226706164e-01 
3.182500000000e+01 5.151265790614e-01 
3.182500000000e+01 5.151265790614e-01 
3.182500000000e+01 5.151265790614e-01 
3.182500000000e+01 5.151265790614e-01 
3.182500000000e+01 5.151265790614e-01 
3.185000000000e+01 5.131641095520e-01 
3.185000000000e+01 5.131641095520e-01 
3.185000000000e+01 5.131641095520e-01 
3.185000000000e+01 5.131641095520e-01 
3.185000000000e+01 5.131641095520e-01 
3.187500000000e+01 5.112342941078e-01 
3.187500000000e+01 5.112342941078e-01 
3.187500000000e+01 5.112342941078e-01 
3.187500000000e+01 5.112342941078e-01 
3.187500000000e+01 5.112342941078e-01 
3.190000000000e+01 5.093362037054e-01 
3.190000000000e+01 5.093362037054e-01 
3.190000000000e+01 5.093362037054e-01 
3.190000000000e+01 5.093362037054e-01 
3.190000000000e+01 5.093362037054e-01 
3.192500000000e+01 5.074689462822e-01 
3.192500000000e+01 5.074689462822e-01 
3.192500000000e+01 5.074689462822e-01 
3.192500000000e+01 5.074689462822e-01 
3.192500000000e+01 5.074689462822e-01 
3.195000000000e+01 5.056316648631e-01 
3.195000000000e+01 5.056316648631e-01 
3.195000000000e+01 5.056316648631e-01 
3.195000000000e+01 5.056316648631e-01 
3.195000000000e+01 5.056316648631e-01 
3.197500000000e+01 5.038235358020e-01 
3.197500000000e+01 5.038235358020e-01 
3.197500000000e+01 5.038235358020e-01 
3.197500000000e+01 5.038235358020e-01 
3.197500000000e+01 5.038235358020e-01 
3.200000000000e+01 4.971883620953e-01 
3.200000000000e+01 4.972415636427e-01 
3.200000000000e+01 4.972681337251e-01 
3.200000000000e+01 4.972149730230e-01 
3.200000000000e+01 4.972946830387e-01 
3.505685432848e+01 3.831091009304e-01 
3.506883703643e+01 3.828417547610e-01 
3.508081974439e+01 3.825752311418e-01 
3.509280245234e+01 3.823095257301e-01 
3.510478516030e+01 3.820446342155e-01 
3.811370865695e+01 3.377456558841e-01 
3.813767407286e+01 3.374689513284e-01 
3.816163948877e+01 3.371933256120e-01 
3.818560490468e+01 3.369187714225e-01 
3.820957032059e+01 3.366452815179e-01 
4.117056298543e+01 3.098603802653e-01 
4.120651110930e+01 3.095894113788e-01 
4.124245923316e+01 3.093195936591e-01 
4.127840735703e+01 3.090509185871e-01 
4.131435548089e+01 3.087833777330e-01 
4.422741731391e+01 2.904383128234e-01 
4.427534814573e+01 2.901763503639e-01 
4.432327897755e+01 2.899155535848e-01 
4.437120980937e+01 2.896559134465e-01 
4.441914064119e+01 2.893974210090e-01 
4.728427164239e+01 2.758138648429e-01 
4.734418518216e+01 2.755610337317e-01 
4.740409872193e+01 2.753093609051e-01 
4.746401226171e+01 2.750588371141e-01 
4.752392580148e+01 2.748094532152e-01 
 TITLE = "Profiles along polylines"
 VARIABLES = "DIST" "SATURATION1" 
 ZONE T="TIME=1.797693134862e+308"
1.228427164239e+01 1.000000000000e+00 
1.234418518216e+01 1.000000000000e+00 
1.240409872193e+01 1.000000000000e+00 
1.246401226171e+01 1.000000000000e+00 
1.252392580148e+01 1.000000000000e+00 
1.287479592097e+01 1.000000000000e+00 
1.293271234275e+01 1.000000000000e+00 
1.299062876454e+01 1.000000000000e+00 
1.304854518632e+01 1.000000000000e+00 
1.310646160810e+01 1.000000000000e+00 
1.346532019956e+01 1.000000000000e+00 
1.352123950335e+01 1.000000000000e+00 
1.357715880714e+01 1.000000000000e+00 
1.363307811093e+01 1.000000000000e+00 
1.368899741472e+01 1.000000000000e+00 
1.405584447815e+01 1.000000000000e+00 
1.410976666394e+01 1.000000000000e+00 
1.416368884974e+01 1.000000000000e+00 
1.421761103554e+01 1.000000000000e+00 
1.427153322133e+01 1.000000000000e+00 
1.464636875673e+01 1.000000000000e+00 
1.469829382454e+01 1.000000000000e+00 
1.475021889234e+01 1.000000000000e+00 
1.480214396015e+01 1.000000000000e+00 
1.485406902795e+01 1.000000000000e+00 
1.523689303532e+01 1.000000000000e+00 
1.528682098513e+01 1.000000000000e+00 
1.533674893494e+01 1.000000000000e+00 
1.538667688476e+01 1.000000000000e+00 
1.543660483457e+01 1.000000000000e+00 
1.582741731391e+01 1.000000000000e+00 
1.587534814573e+01 1.000000000000e+00 
1.592327897755e+01 1.000000000000e+00 
1.597120980937e+01 1.000000000000e+00 
1.601914064119e+01 1.000000000000e+00 
1.641794159249e+01 1.000000000000e+00 
1.646387530632e+01 1.000000000000e+00 
1.650980902015e+01 1.000000000000e+00 
1.655574273398e+01 1.000000000000e+00 
1.660167644780e+01 1.000000000000e+00 
1.700846587108e+01 1.000000000000e+00 
1.705240246692e+01 1.000000000000e+00 
1.709633906275e+01 1.000000000000e+00 
1.714027565859e+01 1.000000000000e+00 
1.718421225442e+01 1.000000000000e+00 
1.759899014967e+01 1.000000000000e+00 
1.764092962751e+01 1.000000000000e+00 
1.768286910535e+01 1.000000000000e+00 
1.772480858319e+01 1.000000000000e+00 
1.776674806104e+01 1.000000000000e+00 
1.818951442825e+01 1.000000000000e+00 
1.822945678810e+01 1.000000000000e+00 
1.826939914795e+01 1.000000000000e+00 
1.830934150780e+01 1.000000000000e+00 
1.834928386765e+01 1.000000000000e+00 
1.878003870684e+01 1.000000000000e+00 
1.881798394870e+01 1.000000000000e+00 
1.885592919055e+01 1.000000000000e+00 
1.889387443241e+01 1.000000000000e+00 
1.893181967427e+01 1.000000000000e+00 
1.937056298543e+01 1.000000000000e+00 
1.940651110929e+01 1.000000000000e+00 
1.944245923315e+01 1.000000000000e+00 
1.947840735702e+01 1.000000000000e+00 
1.951435548088e+01 1.000000000000e+00 
1.996108726401e+01 1.000000000000e+00 
1.999503826988e+01 1.000000000000e+00 
2.002898927576e+01 1.000000000000e+00 
2.006294028163e+01 1.000000000000e+00 
2.009689128750e+01 1.000000000000e+00 
2.055161154260e+01 1.000000000000e+00 
2.058356543048e+01 1.000000000000e+00 
2.061551931836e+01 1.000000000000e+00 
2.064747320624e+01 1.000000000000e+00 
2.067942709412e+01 1.000000000000e+00 
2.114213582118e+01 1.000000000000e+00 
2.117209259107e+01 1.000000000000e+00 
2.120204936096e+01 1.000000000000e+00 
2.123200613084e+01 1.000000000000e+00 
2.126196290073e+01 1.000000000000e+00 
2.173266009977e+01 1.000000000000e+00 
2.176061975167e+01 1.000000000000e+00 
2.178857940356e+01 1.000000000000e+00 
2.181653905545e+01 1.000000000000e+00 
2.184449870735e+01 1.000000000000e+00 
2.232318437836e+01 1.000000000000e+00 
2.234914691226e+01 1.000000000000e+00 
2.237510944616e+01 1.000000000000e+00 
2.240107198007e+01 1.000000000000e+00 
2.242703451397e+01 1.000000000000e+00 
2.291370865695e+01 1.000000000000e+00 
2.293767407286e+01 1.000000000000e+00 
2.296163948877e+01 1.000000000000e+00 
2.298560490468e+01 1.000000000000e+00 
2.300957032059e+01 1.000000000000e+00 
2.350423293553e+01 1.000000000000e+00 
2.352620123345e+01 1.000000000000e+00 
2.354816953137e+01 1.000000000000e+00 
2.357013782929e+01 1.000000000000e+00 
2.359210612720e+01 1.000000000000e+00 
2.409475721412e+01 1.000000000000e+00 
2.411472839405e+01 1.000000000000e+00 
2.413469957397e+01 1.000000000000e+00 
2.415467075390e+01 1.000000000000e+00 
2.417464193382e+01 1.000000000000e+00 
2.468528149271e+01 1.000000000000e+00 
2.470325555464e+01 1.000000000000e+00 
2.472122961657e+01 1.000000000000e+00 
2.473920367851e+01 1.000000000000e+00 
2.475717774044e+01 1.000000000000e+00 
2.527580577130e+01 1.000000000000e+00 
2.529178271524e+01 1.000000000000e+00 
2.530775965918e+01 1.000000000000e+00 
2.532373660312e+01 1.000000000000e+00 
2.533971354706e+01 1.000000000000e+00 
2.586633004989e+01 1.000000000000e+00 
2.588030987583e+01 1.000000000000e+00 
2.589428970178e+01 1.000000000000e+00 
2.590826952773e+01 1.000000000000e+00 
2.592224935367e+01 1.000000000000e+00 
2.645685432847e+01 1.000000000000e+00 
2.646883703643e+01 1.000000000000e+00 
2.648081974438e+01 1.000000000000e+00 
2.649280245234e+01 1.000000000000e+00 
2.650478516029e+01 1.000000000000e+00 
2.704737860706e+01 1.000000000000e+00 
2.705736419702e+01 1.000000000000e+00 
2.706734978699e+01 1.000000000000e+00 
2.707733537695e+01 1.000000000000e+00 
2.708732096691e+01 1.000000000000e+00 
2.763790288565e+01 1.000000000000e+00 
2.764589135762e+01 1.000000000000e+00 
2.765387982959e+01 1.000000000000e+00 
2.766186830156e+01 1.000000000000e+00 
2.766985677353e+01 1.000000000000e+00 
2.822842716424e+01 1.000000000000e+00 
2.823441851821e+01 1.000000000000e+00 
2.824040987219e+01 1.000000000000e+00 
2.824640122617e+01 1.000000000000e+00 
2.825239258015e+01 1.000000000000e+00 
2.881895144282e+01 1.000000000000e+00 
2.882294567881e+01 1.000000000000e+00 
2.882693991479e+01 1.000000000000e+00 
2.883093415078e+01 1.000000000000e+00 
2.883492838676e+01 1.000000000000e+00 
2.940947572141e+01 1.000000000000e+00 
2.941147283940e+01 1.000000000000e+00 
2.941346995740e+01 1.000000000000e+00 
2.941546707539e+01 1.000000000000e+00 
2.941746419338e+01 1.000000000000e+00 
3.000000000000e+01 1.000000000000e+00 
3.000000000000e+01 1.000000000000e+00 
3.000000000000e+01 1.000000000000e+00 
3.000000000000e+01 1.000000000000e+00 
3.000000000000e+01 1.000000000000e+00 
3.002500000000e+01 1.000000000000e+00 
3.002500000000e+01 1.000000000000e+00 
3.002500000000e+01 1.000000000000e+00 
3.002500000000e+01 1.000000000000e+00 
3.002500000000e+01 1.000000000000e+00 
3.005000000000e+01 1.000000000000e+00 
3.005000000000e+01 1.000000000000e+00 
3.005000000000e+01 1.000000000000e+00 
3.005000000000e+01 1.000000000000e+00 
3.005000000000e+01 1.000000000000e+00 
3.007500000000e+01 1.000000000000e+00 
3.007500000000e+01 1.000000000000e+00 
3.007500000000e+01 1.000000000000e+00 
3.007500000000e+01 1.000000000000e+00 
3.007500000000e+01 1.000000000000e+00 
3.010000000000e+01 1.000000000000e+00 
3.010000000000e+01 1.000000000000e+00 
3.010000000000e+01 1.000000000000e+00 
3.010000000000e+01 1.000000000000e+00 
3.010000000000e+01 1.000000000000e+00 
3.012500000000e+01 1.000000000000e+00 
3.012500000000e+01 1.000000000000e+00 
3.012500000000e+01 1.000000000000e+00 
3.012500000000e+01 1.000000000000e+00 
3.012500000000e+01 1.000000000000e+00 
3.015000000000e+01 1.000000000000e+00 
3.015000000000e+01 1.000000000000e+00 
3.015000000000e+01 1.000000000000e+00 