 TITLE = "Profiles along polylines"
 VARIABLES = "DIST" "SATURATION1" 
 ZONE T="TIME=0.000000000000e+00"
1.652059349693e+01 1.000000000000e+00 
1.656057571544e+01 1.000000000000e+00 
1.660055793396e+01 1.000000000000e+00 
1.664054015248e+01 1.000000000000e+00 
1.668052237099e+01 1.000000000000e+00 
1.696990704703e+01 1.000000000000e+00 
1.700855652493e+01 1.000000000000e+00 
1.704720600283e+01 1.000000000000e+00 
1.708585548073e+01 1.000000000000e+00 
1.712450495863e+01 1.000000000000e+00 
1.741922059713e+01 1.000000000000e+00 
1.745653733441e+01 1.000000000000e+00 
1.749385407170e+01 1.000000000000e+00 
1.753117080898e+01 1.000000000000e+00 
1.756848754626e+01 1.000000000000e+00 
1.786853414724e+01 1.000000000000e+00 
1.790451814390e+01 1.000000000000e+00 
1.794050214056e+01 1.000000000000e+00 
1.797648613723e+01 1.000000000000e+00 
1.801247013389e+01 1.000000000000e+00 
1.831784769734e+01 1.000000000000e+00 
1.835249895339e+01 1.000000000000e+00 
1.838715020943e+01 1.000000000000e+00 
1.842180146548e+01 1.000000000000e+00 
1.845645272153e+01 1.000000000000e+00 
1.876716124744e+01 1.000000000000e+00 
1.880047976287e+01 1.000000000000e+00 
1.883379827830e+01 1.000000000000e+00 
1.886711679373e+01 1.000000000000e+00 
1.890043530916e+01 1.000000000000e+00 
1.921647479754e+01 1.000000000000e+00 
1.924846057236e+01 1.000000000000e+00 
1.928044634717e+01 1.000000000000e+00 
1.931243212198e+01 1.000000000000e+00 
1.934441789679e+01 1.000000000000e+00 
1.966578834764e+01 1.000000000000e+00 
1.969644138184e+01 1.000000000000e+00 
1.972709441604e+01 1.000000000000e+00 
1.975774745023e+01 1.000000000000e+00 
1.978840048443e+01 1.000000000000e+00 
2.011510189775e+01 1.000000000000e+00 
2.014442219133e+01 1.000000000000e+00 
2.017374248490e+01 1.000000000000e+00 
2.020306277848e+01 1.000000000000e+00 
2.023238307206e+01 1.000000000000e+00 
2.056441544785e+01 1.000000000000e+00 
2.059240300081e+01 1.000000000000e+00 
2.062039055377e+01 1.000000000000e+00 
2.064837810673e+01 1.000000000000e+00 
2.067636565969e+01 1.000000000000e+00 
2.101372899795e+01 1.000000000000e+00 
2.104038381029e+01 1.000000000000e+00 
2.106703862264e+01 1.000000000000e+00 
2.109369343498e+01 1.000000000000e+00 
2.112034824733e+01 1.000000000000e+00 
2.146304254805e+01 1.000000000000e+00 
2.148836461978e+01 1.000000000000e+00 
2.151368669151e+01 1.000000000000e+00 
2.153900876323e+01 1.000000000000e+00 
2.156433083496e+01 1.000000000000e+00 
2.191235609815e+01 1.000000000000e+00 
2.193634542926e+01 1.000000000000e+00 
2.196033476037e+01 1.000000000000e+00 
2.198432409148e+01 1.000000000000e+00 
2.200831342259e+01 1.000000000000e+00 
2.236166964826e+01 1.000000000000e+00 
2.238432623875e+01 1.000000000000e+00 
2.240698282924e+01 1.000000000000e+00 
2.242963941973e+01 1.000000000000e+00 
2.245229601023e+01 1.000000000000e+00 
2.281098319836e+01 1.000000000000e+00 
2.283230704823e+01 1.000000000000e+00 
2.285363089811e+01 1.000000000000e+00 
2.287495474798e+01 1.000000000000e+00 
2.289627859786e+01 1.000000000000e+00 
2.326029674846e+01 1.000000000000e+00 
2.328028785772e+01 1.000000000000e+00 
2.330027896698e+01 1.000000000000e+00 
2.332027007623e+01 1.000000000000e+00 
2.334026118549e+01 1.000000000000e+00 
2.370961029856e+01 1.000000000000e+00 
2.372826866720e+01 1.000000000000e+00 
2.374692703584e+01 1.000000000000e+00 
2.376558540449e+01 1.000000000000e+00 
2.378424377313e+01 1.000000000000e+00 
2.415892384866e+01 1.000000000000e+00 
2.417624947669e+01 1.000000000000e+00 
2.419357510471e+01 1.000000000000e+00 
2.421090073274e+01 1.000000000000e+00 
2.422822636076e+01 1.000000000000e+00 
2.460823739877e+01 1.000000000000e+00 
2.462423028617e+01 1.000000000000e+00 
2.464022317358e+01 1.000000000000e+00 
2.465621606099e+01 1.000000000000e+00 
2.467220894839e+01 1.000000000000e+00 
2.505755094887e+01 1.000000000000e+00 
2.507221109566e+01 1.000000000000e+00 
2.508687124245e+01 1.000000000000e+00 
2.510153138924e+01 1.000000000000e+00 
2.511619153603e+01 1.000000000000e+00 
2.550686449897e+01 1.000000000000e+00 
2.552019190515e+01 1.000000000000e+00 
2.553351931132e+01 1.000000000000e+00 
2.554684671749e+01 1.000000000000e+00 
2.556017412366e+01 1.000000000000e+00 
2.595617804908e+01 1.000000000000e+00 
2.596817271463e+01 1.000000000000e+00 
2.598016738019e+01 1.000000000000e+00 
2.599216204574e+01 1.000000000000e+00 
2.600415671130e+01 1.000000000000e+00 
2.640549159918e+01 1.000000000000e+00 
2.641615352412e+01 1.000000000000e+00 
2.642681544905e+01 1.000000000000e+00 
2.643747737399e+01 1.000000000000e+00 
2.644813929893e+01 1.000000000000e+00 
2.685480514928e+01 1.000000000000e+00 
2.686413433360e+01 1.000000000000e+00 
2.687346351792e+01 1.000000000000e+00 
2.688279270224e+01 1.000000000000e+00 
2.689212188656e+01 1.000000000000e+00 
2.730411869938e+01 1.000000000000e+00 
2.731211514309e+01 1.000000000000e+00 
2.732011158679e+01 1.000000000000e+00 
2.732810803049e+01 1.000000000000e+00 
2.733610447420e+01 1.000000000000e+00 
2.775343224949e+01 1.000000000000e+00 
2.776009595257e+01 1.000000000000e+00 
2.776675965566e+01 1.000000000000e+00 
2.777342335874e+01 1.000000000000e+00 
2.778008706183e+01 1.000000000000e+00 
2.820274579959e+01 1.000000000000e+00 
2.820807676206e+01 1.000000000000e+00 
2.821340772453e+01 1.000000000000e+00 
2.821873868700e+01 1.000000000000e+00 
2.822406964946e+01 1.000000000000e+00 
2.865205934969e+01 1.000000000000e+00 
2.865605757154e+01 1.000000000000e+00 
2.866005579340e+01 1.000000000000e+00 
2.866405401525e+01 1.000000000000e+00 
2.866805223710e+01 1.000000000000e+00 
2.910137289979e+01 1.000000000000e+00 
2.910403838103e+01 1.000000000000e+00 
2.910670386226e+01 1.000000000000e+00 
2.910936934350e+01 1.000000000000e+00 
2.911203482473e+01 1.000000000000e+00 
2.955068644990e+01 1.000000000000e+00 
2.955201919051e+01 1.000000000000e+00 
2.955335193113e+01 1.000000000000e+00 
2.955468467175e+01 1.000000000000e+00 
2.955601741237e+01 1.000000000000e+00 
3.000000000000e+01 1.000000000000e+00 
3.000000000000e+01 1.000000000000e+00 
3.000000000000e+01 1.000000000000e+00 
3.000000000000e+01 1.000000000000e+00 
3.000000000000e+01 1.000000000000e+00 
3.002500000000e+01 9.876207709446e-01 
3.002500000000e+01 9.876207709446e-01 
3.002500000000e+01 9.876207709446e-01 
3.002500000000e+01 9.876207709446e-01 
3.002500000000e+01 9.876207709446e-01 
3.005000000000e+01 9.697756439369e-01 
3.005000000000e+01 9.697756439369e-01 
3.005000000000e+01 9.697756439369e-01 
3.005000000000e+01 9.697756439369e-01 
3.005000000000e+01 9.697756439369e-01 
3.007500000000e+01 9.507134089444e-01 
3.007500000000e+01 9.507134089444e-01 
3.007500000000e+01 9.507134089444e-01 
3.007500000000e+01 9.507134089444e-01 
3.007500000000e+01 9.507134089444e-01 
3.010000000000e+01 9.315621650298e-01 
3.010000000000e+01 9.315621650298e-01 
3.010000000000e+01 9.315621650298e-01 
3.010000000000e+01 9.315621650298e-01 
3.010000000000e+01 9.315621650298e-01 
3.012500000000e+01 9.128758324042e-01 
3.012500000000e+01 9.128758324042e-01 
3.012500000000e+01 9.128758324042e-01 
3.012500000000e+01 9.128758324042e-01 
3.012500000000e+01 9.128758324042e-01 
3.015000000000e+01 8.949248043380e-01 
3.015000000000e+01 8.949248043380e-01 
3.015000000000e+01 8.949248043380e-01 
3.015000000000e+01 8.949248043380e-01 
3.015000000000e+01 8.949248043380e-01 
3.017500000000e+01 8.778290027968e-01 
3.017500000000e+01 8.778290027968e-01 
3.017500000000e+01 8.778290027968e-01 
3.017500000000e+01 8.778290027968e-01 
3.017500000000e+01 8.778290027968e-01 
3.020000000000e+01 8.616255702900e-01 
3.020000000000e+01 8.616255702900e-01 
3.020000000000e+01 8.616255702900e-01 
3.020000000000e+01 8.616255702900e-01 
3.020000000000e+01 8.616255702900e-01 
3.022500000000e+01 8.463059583920e-01 
3.022500000000e+01 8.463059583920e-01 
3.022500000000e+01 8.463059583920e-01 
3.022500000000e+01 8.463059583920e-01 
3.022500000000e+01 8.463059583920e-01 
3.025000000000e+01 8.318370344398e-01 
3.025000000000e+01 8.318370344398e-01 
3.025000000000e+01 8.318370344398e-01 
3.025000000000e+01 8.318370344398e-01 
3.025000000000e+01 8.318370344398e-01 
3.027500000000e+01 8.181733156316e-01 
3.027500000000e+01 8.181733156316e-01 
3.027500000000e+01 8.181733156316e-01 
3.027500000000e+01 8.181733156316e-01 
3.027500000000e+01 8.181733156316e-01 
3.030000000000e+01 8.052640970350e-01 
3.030000000000e+01 8.052640970350e-01 
3.030000000000e+01 8.052640970350e-01 
3.030000000000e+01 8.052640970350e-01 
3.030000000000e+01 8.052640970350e-01 
3.032500000000e+01 7.930575753856e-01 
3.032500000000e+01 7.930575753856e-01 
3.032500000000e+01 7.930575753856e-01 
3.032500000000e+01 7.930575753856e-01 
3.032500000000e+01 7.930575753856e-01 
3.035000000000e+01 7.815031815402e-01 
3.035000000000e+01 7.815031815402e-01 
3.035000000000e+01 7.815031815402e-01 
3.035000000000e+01 7.815031815402e-01 
3.035000000000e+01 7.815031815402e-01 
3.037500000000e+01 7.705528376764e-01 
3.037500000000e+01 7.705528376764e-01 
3.037500000000e+01 7.705528376764e-01 
3.037500000000e+01 7.705528376764e-01 
3.037500000000e+01 7.705528376764e-01 
3.040000000000e+01 7.601615689674e-01 
3.040000000000e+01 7.601615689674e-01 
3.040000000000e+01 7.601615689674e-01 
3.040000000000e+01 7.601615689674e-01 
3.040000000000e+01 7.601615689674e-01 
3.042500000000e+01 7.502877306002e-01 
3.042500000000e+01 7.502877306002e-01 
3.042500000000e+01 7.502877306002e-01 
3.042500000000e+01 7.502877306002e-01 
3.042500000000e+01 7.502877306002e-01 
3.045000000000e+01 7.408930096824e-01 
3.045000000000e+01 7.408930096824e-01 
3.045000000000e+01 7.408930096824e-01 
3.045000000000e+01 7.408930096824e-01 
3.045000000000e+01 7.408930096824e-01 
3.047500000000e+01 7.319422999608e-01 
3.047500000000e+01 7.319422999608e-01 
3.047500000000e+01 7.319422999608e-01 
3.047500000000e+01 7.319422999608e-01 
3.047500000000e+01 7.319422999608e-01 
3.050000000000e+01 7.234035093991e-01 
3.050000000000e+01 7.234035093991e-01 
3.050000000000e+01 7.234035093991e-01 
3.050000000000e+01 7.234035093991e-01 
3.050000000000e+01 7.234035093991e-01 
3.052500000000e+01 7.152473371957e-01 
3.052500000000e+01 7.152473371957e-01 
3.052500000000e+01 7.152473371957e-01 
3.052500000000e+01 7.152473371957e-01 
3.052500000000e+01 7.152473371957e-01 
3.055000000000e+01 7.074470422112e-01 
3.055000000000e+01 7.074470422112e-01 
3.055000000000e+01 7.074470422112e-01 
3.055000000000e+01 7.074470422112e-01 
3.055000000000e+01 7.074470422112e-01 
3.057500000000e+01 6.999782156504e-01 
3.057500000000e+01 6.999782156504e-01 
3.057500000000e+01 6.999782156504e-01 
3.057500000000e+01 6.999782156504e-01 
3.057500000000e+01 6.999782156504e-01 
3.060000000000e+01 6.928185651596e-01 
3.060000000000e+01 6.928185651596e-01 
3.060000000000e+01 6.928185651596e-01 
3.060000000000e+01 6.928185651596e-01 
3.060000000000e+01 6.928185651596e-01 
3.062500000000e+01 6.859477139679e-01 
3.062500000000e+01 6.859477139679e-01 
3.062500000000e+01 6.859477139679e-01 
3.062500000000e+01 6.859477139679e-01 
3.062500000000e+01 6.859477139679e-01 
3.065000000000e+01 6.793470165436e-01 
3.065000000000e+01 6.793470165436e-01 
3.065000000000e+01 6.793470165436e-01 
3.065000000000e+01 6.793470165436e-01 
3.065000000000e+01 6.793470165436e-01 
3.067500000000e+01 6.729993909360e-01 
3.067500000000e+01 6.729993909360e-01 
3.067500000000e+01 6.729993909360e-01 
3.067500000000e+01 6.729993909360e-01 
3.067500000000e+01 6.729993909360e-01 
3.070000000000e+01 6.668891672206e-01 
3.070000000000e+01 6.668891672206e-01 
3.070000000000e+01 6.668891672206e-01 
3.070000000000e+01 6.668891672206e-01 
3.070000000000e+01 6.668891672206e-01 
3.072500000000e+01 6.610019510587e-01 
3.072500000000e+01 6.610019510587e-01 
3.072500000000e+01 6.610019510587e-01 
3.072500000000e+01 6.610019510587e-01 
3.072500000000e+01 6.610019510587e-01 
3.075000000000e+01 6.553245011865e-01 
3.075000000000e+01 6.553245011865e-01 
3.075000000000e+01 6.553245011865e-01 
3.075000000000e+01 6.553245011865e-01 
3.075000000000e+01 6.553245011865e-01 
3.077500000000e+01 6.498446195878e-01 
3.077500000000e+01 6.498446195878e-01 
3.077500000000e+01 6.498446195878e-01 
3.077500000000e+01 6.498446195878e-01 
3.077500000000e+01 6.498446195878e-01 
3.080000000000e+01 6.445510531188e-01 
3.080000000000e+01 6.445510531188e-01 
3.080000000000e+01 6.445510531188e-01 
3.080000000000e+01 6.445510531188e-01 
3.080000000000e+01 6.445510531188e-01 
3.082500000000e+01 6.394334054150e-01 
3.082500000000e+01 6.394334054150e-01 
3.082500000000e+01 6.394334054150e-01 
3.082500000000e+01 6.394334054150e-01 
3.082500000000e+01 6.394334054150e-01 
3.085000000000e+01 6.344820579917e-01 
3.085000000000e+01 6.344820579917e-01 
3.085000000000e+01 6.344820579917e-01 
3.085000000000e+01 6.344820579917e-01 
3.085000000000e+01 6.344820579917e-01 
3.087500000000e+01 6.296880995462e-01 
3.087500000000e+01 6.296880995462e-01 
3.087500000000e+01 6.296880995462e-01 
3.087500000000e+01 6.296880995462e-01 
3.087500000000e+01 6.296880995462e-01 
3.090000000000e+01 6.250432625624e-01 
3.090000000000e+01 6.250432625624e-01 
3.090000000000e+01 6.250432625624e-01 
3.090000000000e+01 6.250432625624e-01 
3.090000000000e+01 6.250432625624e-01 
3.092500000000e+01 6.205398664126e-01 
3.092500000000e+01 6.205398664126e-01 
3.092500000000e+01 6.205398664126e-01 
3.092500000000e+01 6.205398664126e-01 
3.092500000000e+01 6.205398664126e-01 
3.095000000000e+01 6.161707662369e-01 
3.095000000000e+01 6.161707662369e-01 
3.095000000000e+01 6.161707662369e-01 
3.095000000000e+01 6.161707662369e-01 
3.095000000000e+01 6.161707662369e-01 
3.097500000000e+01 6.119293069613e-01 
3.097500000000e+01 6.119293069613e-01 
3.097500000000e+01 6.119293069613e-01 
3.097500000000e+01 6.119293069613e-01 
3.097500000000e+01 6.119293069613e-01 
3.100000000000e+01 6.078092818871e-01 
3.100000000000e+01 6.078092818871e-01 
3.100000000000e+01 6.078092818871e-01 
3.100000000000e+01 6.078092818871e-01 
3.100000000000e+01 6.078092818871e-01 
3.102500000000e+01 6.038048953494e-01 
3.102500000000e+01 6.038048953494e-01 
3.102500000000e+01 6.038048953494e-01 
3.102500000000e+01 6.038048953494e-01 
3.102500000000e+01 6.038048953494e-01 
3.105000000000e+01 5.999107290013e-01 
3.105000000000e+01 5.999107290013e-01 
3.105000000000e+01 5.999107290013e-01 
3.105000000000e+01 5.999107290013e-01 
3.105000000000e+01 5.999107290013e-01 
3.107500000000e+01 5.961217113309e-01 
3.107500000000e+01 5.961217113309e-01 
3.107500000000e+01 5.961217113309e-01 
3.107500000000e+01 5.961217113309e-01 
3.107500000000e+01 5.961217113309e-01 
3.110000000000e+01 5.924330900627e-01 
3.110000000000e+01 5.924330900627e-01 
3.110000000000e+01 5.924330900627e-01 
3.110000000000e+01 5.924330900627e-01 
3.110000000000e+01 5.924330900627e-01 
3.112500000000e+01 5.888404071392e-01 
3.112500000000e+01 5.888404071392e-01 
3.112500000000e+01 5.888404071392e-01 
3.112500000000e+01 5.888404071392e-01 
3.112500000000e+01 5.888404071392e-01 
3.115000000000e+01 5.853394760078e-01 
3.115000000000e+01 5.853394760078e-01 
3.115000000000e+01 5.853394760078e-01 
3.115000000000e+01 5.853394760078e-01 
3.115000000000e+01 5.853394760078e-01 
3.117500000000e+01 5.819263609758e-01 
3.117500000000e+01 5.819263609758e-01 
3.117500000000e+01 5.819263609758e-01 
3.117500000000e+01 5.819263609758e-01 
3.117500000000e+01 5.819263609758e-01 
3.120000000000e+01 5.785973584173e-01 
3.120000000000e+01 5.785973584173e-01 
3.120000000000e+01 5.785973584173e-01 
3.120000000000e+01 5.785973584173e-01 
3.120000000000e+01 5.785973584173e-01 
3.122500000000e+01 5.753489796460e-01 
3.122500000000e+01 5.753489796460e-01 
3.122500000000e+01 5.753489796460e-01 
3.122500000000e+01 5.753489796460e-01 
3.122500000000e+01 5.753489796460e-01 
3.125000000000e+01 5.721779352840e-01 
3.125000000000e+01 5.721779352840e-01 
3.125000000000e+01 5.721779352840e-01 
3.125000000000e+01 5.721779352840e-01 
3.125000000000e+01 5.721779352840e-01 
3.127500000000e+01 5.690811209785e-01 
3.127500000000e+01 5.690811209785e-01 
3.127500000000e+01 5.690811209785e-01 
3.127500000000e+01 5.690811209785e-01 
3.127500000000e+01 5.690811209785e-01 
3.130000000000e+01 5.660556043336e-01 
3.130000000000e+01 5.660556043336e-01 
3.130000000000e+01 5.660556043336e-01 
3.130000000000e+01 5.660556043336e-01 
3.130000000000e+01 5.660556043336e-01 
3.132500000000e+01 5.630986129391e-01 
3.132500000000e+01 5.630986129391e-01 
3.132500000000e+01 5.630986129391e-01 
3.132500000000e+01 5.630986129391e-01 
3.132500000000e+01 5.630986129391e-01 
3.135000000000e+01 5.602075233904e-01 
3.135000000000e+01 5.602075233904e-01 
3.135000000000e+01 5.602075233904e-01 
3.135000000000e+01 5.602075233904e-01 
3.135000000000e+01 5.602075233904e-01 
3.137500000000e+01 5.573798512060e-01 
3.137500000000e+01 5.573798512060e-01 
3.137500000000e+01 5.573798512060e-01 
3.137500000000e+01 5.573798512060e-01 
3.137500000000e+01 5.573798512060e-01 
3.140000000000e+01 5.546132415581e-01 
3.140000000000e+01 5.546132415581e-01 
3.140000000000e+01 5.546132415581e-01 
3.140000000000e+01 5.546132415581e-01 
3.140000000000e+01 5.546132415581e-01 
3.142500000000e+01 5.519054607414e-01 
3.142500000000e+01 5.519054607414e-01 
3.142500000000e+01 5.519054607414e-01 
3.142500000000e+01 5.519054607414e-01 
3.142500000000e+01 5.519054607414e-01 
3.145000000000e+01 5.492543883110e-01 
3.145000000000e+01 5.492543883110e-01 
3.145000000000e+01 5.492543883110e-01 
3.145000000000e+01 5.492543883110e-01 
3.145000000000e+01 5.492543883110e-01 
3.147500000000e+01 5.466580098318e-01 
3.147500000000e+01 5.466580098318e-01 
3.147500000000e+01 5.466580098318e-01 
3.147500000000e+01 5.466580098318e-01 
3.147500000000e+01 5.466580098318e-01 
3.150000000000e+01 5.441144101810e-01 
3.150000000000e+01 5.441144101810e-01 
3.150000000000e+01 5.441144101810e-01 
3.150000000000e+01 5.441144101810e-01 
3.150000000000e+01 5.441144101810e-01 
3.152500000000e+01 5.416217673588e-01 
3.152500000000e+01 5.416217673588e-01 
3.152500000000e+01 5.416217673588e-01 
3.152500000000e+01 5.416217673588e-01 
3.152500000000e+01 5.416217673588e-01 
3.155000000000e+01 5.391783467591e-01 
3.155000000000e+01 5.391783467591e-01 
3.155000000000e+01 5.391783467591e-01 
3.155000000000e+01 5.391783467591e-01 
3.155000000000e+01 5.391783467591e-01 
3.157500000000e+01 5.367824958643e-01 
3.157500000000e+01 5.367824958643e-01 
3.157500000000e+01 5.367824958643e-01 
3.157500000000e+01 5.367824958643e-01 
3.157500000000e+01 5.367824958643e-01 
3.160000000000e+01 5.344326393247e-01 
3.160000000000e+01 5.344326393247e-01 
3.160000000000e+01 5.344326393247e-01 
3.160000000000e+01 5.344326393247e-01 
3.160000000000e+01 5.344326393247e-01 
3.162500000000e+01 5.321272743928e-01 
3.162500000000e+01 5.321272743928e-01 
3.162500000000e+01 5.321272743928e-01 
3.162500000000e+01 5.321272743928e-01 
3.162500000000e+01 5.321272743928e-01 
3.165000000000e+01 5.298649666811e-01 
3.165000000000e+01 5.298649666811e-01 
3.165000000000e+01 5.298649666811e-01 
3.165000000000e+01 5.298649666811e-01 
3.165000000000e+01 5.298649666811e-01 
3.167500000000e+01 5.276443462180e-01 
3.167500000000e+01 5.276443462180e-01 
3.167500000000e+01 5.276443462180e-01 
3.167500000000e+01 5.276443462180e-01 
3.167500000000e+01 5.276443462180e-01 
3.170000000000e+01 5.254641037767e-01 
3.170000000000e+01 5.254641037767e-01 
3.170000000000e+01 5.254641037767e-01 
3.170000000000e+01 5.254641037767e-01 
3.170000000000e+01 5.254641037767e-01 
3.172500000000e+01 5.233229874560e-01 
3.172500000000e+01 5.233229874560e-01 
3.172500000000e+01 5.233229874560e-01 
3.172500000000e+01 5.233229874560e-01 
3.172500000000e+01 5.233229874560e-01 
3.175000000000e+01 5.212197994921e-01 
3.175000000000e+01 5.212197994921e-01 
3.175000000000e+01 5.212197994921e-01 
3.175000000000e+01 5.212197994921e-01 
3.175000000000e+01 5.212197994921e-01 
3.177500000000e+01 5.191533932842e-01 
3.177500000000e+01 5.191533932842e-01 
3.177500000000e+01 5.191533932842e-01 
3.177500000000e+01 5.191533932842e-01 
3.177500000000e+01 5.191533932842e-01 
3.180000000000e+01 5.171226706164e-01 
3.180000000000e+01 5.171226706164e-01 
3.180000000000e+01 5.171226706164e-01 
3.180000000000e+01 5.171226706164e-01 
3.180000000000e+01 5.171226706164e-01 
3.182500000000e+01 5.151265790614e-01 
3.182500000000e+01 5.151265790614e-01 
3.182500000000e+01 5.151265790614e-01 
3.182500000000e+01 5.151265790614e-01 
3.182500000000e+01 5.151265790614e-01 
3.185000000000e+01 5.131641095520e-01 
3.185000000000e+01 5.131641095520e-01 
3.185000000000e+01 5.131641095520e-01 
3.185000000000e+01 5.131641095520e-01 
3.185000000000e+01 5.131641095520e-01 
3.187500000000e+01 5.112342941078e-01 
3.187500000000e+01 5.112342941078e-01 
3.187500000000e+01 5.112342941078e-01 
3.187500000000e+01 5.112342941078e-01 
3.187500000000e+01 5.112342941078e-01 
3.190000000000e+01 5.093362037054e-01 
3.190000000000e+01 5.093362037054e-01 
3.190000000000e+01 5.093362037054e-01 
3.190000000000e+01 5.093362037054e-01 
3.190000000000e+01 5.093362037054e-01 
3.192500000000e+01 5.074689462822e-01 
3.192500000000e+01 5.074689462822e-01 
3.192500000000e+01 5.074689462822e-01 
3.192500000000e+01 5.074689462822e-01 
3.192500000000e+01 5.074689462822e-01 
3.195000000000e+01 5.056316648631e-01 
3.195000000000e+01 5.056316648631e-01 
3.195000000000e+01 5.056316648631e-01 
3.195000000000e+01 5.056316648631e-01 
3.195000000000e+01 5.056316648631e-01 
3.197500000000e+01 5.038235358020e-01 
3.197500000000e+01 5.038235358020e-01 
3.197500000000e+01 5.038235358020e-01 
3.197500000000e+01 5.038235358020e-01 
3.197500000000e+01 5.038235358020e-01 
3.200000000000e+01 4.953041885209e-01 
3.200000000000e+01 4.953409614172e-01 
3.200000000000e+01 4.953593424130e-01 
3.200000000000e+01 4.953225767734e-01 
3.200000000000e+01 4.953777197213e-01 
3.590411869939e+01 3.660152276057e-01 
3.591211514309e+01 3.658694733099e-01 
3.592011158679e+01 3.657239780125e-01 
3.592810803050e+01 3.655787409226e-01 
3.593610447420e+01 3.654337612525e-01 
3.980823739877e+01 3.204843039052e-01 
3.982423028618e+01 3.203406392165e-01 
3.984022317358e+01 3.201972850940e-01 
3.985621606099e+01 3.200542403679e-01 
3.987220894840e+01 3.199115038747e-01 
4.371235609816e+01 2.931295440184e-01 
4.373634542927e+01 2.929916865793e-01 
4.376033476038e+01 2.928541487374e-01 
4.378432409149e+01 2.927169291998e-01 
4.380831342260e+01 2.925800266807e-01 
4.761647479754e+01 2.743582390200e-01 
4.764846057236e+01 2.742265015338e-01 
4.768044634717e+01 2.740950811290e-01 
4.771243212198e+01 2.739639764730e-01 
4.774441789679e+01 2.738331862416e-01 
5.152059349693e+01 2.603533028487e-01 
5.156057571544e+01 2.602271109238e-01 
5.160055793396e+01 2.601012299382e-01 
5.164054015248e+01 2.599756585542e-01 
5.168052237099e+01 2.598503954423e-01 
 TITLE = "Profiles along polylines"
 VARIABLES = "DIST" "SATURATION1" 
 ZONE T="TIME=1.797693134862e+308"
1.652059349693e+01 1.000000000000e+00 
1.656057571544e+01 1.000000000000e+00 
1.660055793396e+01 1.000000000000e+00 
1.664054015248e+01 1.000000000000e+00 
1.668052237099e+01 1.000000000000e+00 
1.696990704703e+01 1.000000000000e+00 
1.700855652493e+01 1.000000000000e+00 
1.704720600283e+01 1.000000000000e+00 
1.708585548073e+01 1.000000000000e+00 
1.712450495863e+01 1.000000000000e+00 
1.741922059713e+01 1.000000000000e+00 
1.745653733441e+01 1.000000000000e+00 
1.749385407170e+01 1.000000000000e+00 
1.753117080898e+01 1.000000000000e+00 
1.756848754626e+01 1.000000000000e+00 
1.786853414724e+01 1.000000000000e+00 
1.790451814390e+01 1.000000000000e+00 
1.794050214056e+01 1.000000000000e+00 
1.797648613723e+01 1.000000000000e+00 
1.801247013389e+01 1.000000000000e+00 
1.831784769734e+01 1.000000000000e+00 
1.835249895339e+01 1.000000000000e+00 
1.838715020943e+01 1.000000000000e+00 
1.842180146548e+01 1.000000000000e+00 
1.845645272153e+01 1.000000000000e+00 
1.876716124744e+01 1.000000000000e+00 
1.880047976287e+01 1.000000000000e+00 
1.883379827830e+01 1.000000000000e+00 
1.886711679373e+01 1.000000000000e+00 
1.890043530916e+01 1.000000000000e+00 
1.921647479754e+01 1.000000000000e+00 
1.924846057236e+01 1.000000000000e+00 
1.928044634717e+01 1.000000000000e+00 
1.931243212198e+01 1.000000000000e+00 
1.934441789679e+01 1.000000000000e+00 
1.966578834764e+01 1.000000000000e+00 
1.969644138184e+01 1.000000000000e+00 
1.972709441604e+01 1.000000000000e+00 
1.975774745023e+01 1.000000000000e+00 
1.978840048443e+01 1.000000000000e+00 
2.011510189775e+01 1.000000000000e+00 
2.014442219133e+01 1.000000000000e+00 
2.017374248490e+01 1.000000000000e+00 
2.020306277848e+01 1.000000000000e+00 
2.023238307206e+01 1.000000000000e+00 
2.056441544785e+01 1.000000000000e+00 
2.059240300081e+01 1.000000000000e+00 
2.062039055377e+01 1.000000000000e+00 
2.064837810673e+01 1.000000000000e+00 
2.067636565969e+01 1.000000000000e+00 
2.101372899795e+01 1.000000000000e+00 
2.104038381029e+01 1.000000000000e+00 
2.106703862264e+01 1.000000000000e+00 
2.109369343498e+01 1.000000000000e+00 
2.112034824733e+01 1.000000000000e+00 
2.146304254805e+01 1.000000000000e+00 
2.148836461978e+01 1.000000000000e+00 
2.151368669151e+01 1.000000000000e+00 
2.153900876323e+01 1.000000000000e+00 
2.156433083496e+01 1.000000000000e+00 
2.191235609815e+01 1.000000000000e+00 
2.193634542926e+01 1.000000000000e+00 
2.196033476037e+01 1.000000000000e+00 
2.198432409148e+01 1.000000000000e+00 
2.200831342259e+01 1.000000000000e+00 
2.236166964826e+01 1.000000000000e+00 
2.238432623875e+01 1.000000000000e+00 
2.240698282924e+01 1.000000000000e+00 
2.242963941973e+01 1.000000000000e+00 
2.245229601023e+01 1.000000000000e+00 
2.281098319836e+01 1.000000000000e+00 
2.283230704823e+01 1.000000000000e+00 
2.285363089811e+01 1.000000000000e+00 
2.287495474798e+01 1.000000000000e+00 
2.289627859786e+01 1.000000000000e+00 
2.326029674846e+01 1.000000000000e+00 
2.328028785772e+01 1.000000000000e+00 
2.330027896698e+01 1.000000000000e+00 
2.332027007623e+01 1.000000000000e+00 
2.334026118549e+01 1.000000000000e+00 
2.370961029856e+01 1.000000000000e+00 
2.372826866720e+01 1.000000000000e+00 
2.374692703584e+01 1.000000000000e+00 
2.376558540449e+01 1.000000000000e+00 
2.378424377313e+01 1.000000000000e+00 
2.415892384866e+01 1.000000000000e+00 
2.417624947669e+01 1.000000000000e+00 
2.419357510471e+01 1.000000000000e+00 
2.421090073274e+01 1.000000000000e+00 
2.422822636076e+01 1.000000000000e+00 
2.460823739877e+01 1.000000000000e+00 
2.462423028617e+01 1.000000000000e+00 
2.464022317358e+01 1.000000000000e+00 
2.465621606099e+01 1.000000000000e+00 
2.467220894839e+01 1.000000000000e+00 
2.505755094887e+01 1.000000000000e+00 
2.507221109566e+01 1.000000000000e+00 
2.508687124245e+01 1.000000000000e+00 
2.510153138924e+01 1.000000000000e+00 
2.511619153603e+01 1.000000000000e+00 
2.550686449897e+01 1.000000000000e+00 
2.552019190515e+01 1.000000000000e+00 
2.553351931132e+01 1.000000000000e+00 
2.554684671749e+01 1.000000000000e+00 
2.556017412366e+01 1.000000000000e+00 
2.595617804908e+01 1.000000000000e+00 
2.596817271463e+01 1.000000000000e+00 
2.598016738019e+01 1.000000000000e+00 
2.599216204574e+01 1.000000000000e+00 
2.600415671130e+01 1.000000000000e+00 
2.640549159918e+01 1.000000000000e+00 
2.641615352412e+01 1.000000000000e+00 
2.642681544905e+01 1.000000000000e+00 
2.643747737399e+01 1.000000000000e+00 
2.644813929893e+01 1.000000000000e+00 
2.685480514928e+01 1.000000000000e+00 
2.686413433360e+01 1.000000000000e+00 
2.687346351792e+01 1.000000000000e+00 
2.688279270224e+01 1.000000000000e+00 
2.689212188656e+01 1.000000000000e+00 
2.730411869938e+01 1.000000000000e+00 
2.731211514309e+01 1.000000000000e+00 
2.732011158679e+01 1.000000000000e+00 
2.732810803049e+01 1.000000000000e+00 
2.733610447420e+01 1.000000000000e+00 
2.775343224949e+01 1.000000000000e+00 
2.776009595257e+01 1.000000000000e+00 
2.776675965566e+01 1.000000000000e+00 
2.777342335874e+01 1.000000000000e+00 
2.778008706183e+01 1.000000000000e+00 
2.820274579959e+01 1.000000000000e+00 
2.820807676206e+01 1.000000000000e+00 
2.821340772453e+01 1.000000000000e+00 
2.821873868700e+01 1.000000000000e+00 
2.822406964946e+01 1.000000000000e+00 
2.865205934969e+01 1.000000000000e+00 
2.865605757154e+01 1.000000000000e+00 
2.866005579340e+01 1.000000000000e+00 
2.866405401525e+01 1.000000000000e+00 
2.866805223710e+01 1.000000000000e+00 
2.910137289979e+01 1.000000000000e+00 
2.910403838103e+01 1.000000000000e+00 
2.910670386226e+01 1.000000000000e+00 
2.910936934350e+01 1.000000000000e+00 
2.911203482473e+01 1.000000000000e+00 
2.955068644990e+01 1.000000000000e+00 
2.955201919051e+01 1.000000000000e+00 
2.955335193113e+01 1.000000000000e+00 
2.955468467175e+01 1.000000000000e+00 
2.955601741237e+01 1.000000000000e+00 
3.000000000000e+01 1.000000000000e+00 
3.000000000000e+01 1.000000000000e+00 
3.000000000000e+01 1.000000000000e+00 
3.000000000000e+01 1.000000000000e+00 
3.000000000000e+01 1.000000000000e+00 
3.002500000000e+01 1.000000000000e+00 
3.002500000000e+01 1.000000000000e+00 
3.002500000000e+01 1.000000000000e+00 
3.002500000000e+01 1.000000000000e+00 
3.002500000000e+01 1.000000000000e+00 
3.005000000000e+01 1.000000000000e+00 
3.005000000000e+01 1.000000000000e+00 
3.005000000000e+01 1.000000000000e+00 
3.005000000000e+01 1.000000000000e+00 
3.005000000000e+01 1.000000000000e+00 
3.007500000000e+01 1.000000000000e+00 
3.007500000000e+01 1.000000000000e+00 
3.007500000000e+01 1.000000000000e+00 
3.007500000000e+01 1.000000000000e+00 
3.007500000000e+01 1.000000000000e+00 
3.010000000000e+01 1.000000000000e+00 
3.010000000000e+01 1.000000000000e+00 
3.010000000000e+01 1.000000000000e+00 
3.010000000000e+01 1.000000000000e+00 
3.010000000000e+01 1.000000000000e+00 
3.012500000000e+01 1.000000000000e+00 
3.012500000000e+01 1.000000000000e+00 
3.012500000000e+01 1.000000000000e+00 
3.012500000000e+01 1.000000000000e+00 
3.012500000000e+01 1.000000000000e+00 
3.015000000000e+01 1.000000000000e+00 
3.015000000000e+01 1.000000000000e+00 
3.015000000000e+01 1.000000000000e+00 