 TITLE = "Profiles along polylines"
 VARIABLES = "DIST" "SATURATION1" 
 ZONE T="TIME=0.000000000000e+00"
5.963805347459e+00 1.000000000000e+00 
5.983808442993e+00 1.000000000000e+00 
6.003811538527e+00 1.000000000000e+00 
6.023814634062e+00 1.000000000000e+00 
6.043817729596e+00 1.000000000000e+00 
6.765011835877e+00 1.000000000000e+00 
6.784348161560e+00 1.000000000000e+00 
6.803684487243e+00 1.000000000000e+00 
6.823020812926e+00 1.000000000000e+00 
6.842357138609e+00 1.000000000000e+00 
7.566218324294e+00 1.000000000000e+00 
7.584887880126e+00 1.000000000000e+00 
7.603557435958e+00 1.000000000000e+00 
7.622226991790e+00 1.000000000000e+00 
7.640896547622e+00 1.000000000000e+00 
8.367424812713e+00 1.000000000000e+00 
8.385427598694e+00 1.000000000000e+00 
8.403430384674e+00 1.000000000000e+00 
8.421433170655e+00 1.000000000000e+00 
8.439435956636e+00 1.000000000000e+00 
9.168631301131e+00 1.000000000000e+00 
9.185967317261e+00 1.000000000000e+00 
9.203303333390e+00 1.000000000000e+00 
9.220639349520e+00 1.000000000000e+00 
9.237975365650e+00 1.000000000000e+00 
9.969837789548e+00 1.000000000000e+00 
9.986507035827e+00 1.000000000000e+00 
1.000317628211e+01 1.000000000000e+00 
1.001984552838e+01 1.000000000000e+00 
1.003651477466e+01 1.000000000000e+00 
1.077104427797e+01 1.000000000000e+00 
1.078704675439e+01 1.000000000000e+00 
1.080304923082e+01 1.000000000000e+00 
1.081905170725e+01 1.000000000000e+00 
1.083505418368e+01 1.000000000000e+00 
1.157225076638e+01 1.000000000000e+00 
1.158758647296e+01 1.000000000000e+00 
1.160292217954e+01 1.000000000000e+00 
1.161825788611e+01 1.000000000000e+00 
1.163359359269e+01 1.000000000000e+00 
1.237345725480e+01 1.000000000000e+00 
1.238812619153e+01 1.000000000000e+00 
1.240279512825e+01 1.000000000000e+00 
1.241746406498e+01 1.000000000000e+00 
1.243213300170e+01 1.000000000000e+00 
1.317466374322e+01 1.000000000000e+00 
1.318866591009e+01 1.000000000000e+00 
1.320266807696e+01 1.000000000000e+00 
1.321667024384e+01 1.000000000000e+00 
1.323067241071e+01 1.000000000000e+00 
1.397587023163e+01 1.000000000000e+00 
1.398920562866e+01 1.000000000000e+00 
1.400254102568e+01 1.000000000000e+00 
1.401587642270e+01 1.000000000000e+00 
1.402921181972e+01 1.000000000000e+00 
1.477707672005e+01 1.000000000000e+00 
1.478974534722e+01 1.000000000000e+00 
1.480241397439e+01 1.000000000000e+00 
1.481508260156e+01 1.000000000000e+00 
1.482775122874e+01 1.000000000000e+00 
1.557828320846e+01 1.000000000000e+00 
1.559028506578e+01 1.000000000000e+00 
1.560228692311e+01 1.000000000000e+00 
1.561428878043e+01 1.000000000000e+00 
1.562629063775e+01 1.000000000000e+00 
1.637948969688e+01 1.000000000000e+00 
1.639082478435e+01 1.000000000000e+00 
1.640215987182e+01 1.000000000000e+00 
1.641349495929e+01 1.000000000000e+00 
1.642483004676e+01 1.000000000000e+00 
1.718069618530e+01 1.000000000000e+00 
1.719136450291e+01 1.000000000000e+00 
1.720203282053e+01 1.000000000000e+00 
1.721270113815e+01 1.000000000000e+00 
1.722336945577e+01 1.000000000000e+00 
1.798190267371e+01 1.000000000000e+00 
1.799190422148e+01 1.000000000000e+00 
1.800190576925e+01 1.000000000000e+00 
1.801190731701e+01 1.000000000000e+00 
1.802190886478e+01 1.000000000000e+00 
1.878310916213e+01 1.000000000000e+00 
1.879244394005e+01 1.000000000000e+00 
1.880177871796e+01 1.000000000000e+00 
1.881111349588e+01 1.000000000000e+00 
1.882044827379e+01 1.000000000000e+00 
1.958431565055e+01 1.000000000000e+00 
1.959298365861e+01 1.000000000000e+00 
1.960165166668e+01 1.000000000000e+00 
1.961031967474e+01 1.000000000000e+00 
1.961898768281e+01 1.000000000000e+00 
2.038552213897e+01 1.000000000000e+00 
2.039352337718e+01 1.000000000000e+00 
2.040152461540e+01 1.000000000000e+00 
2.040952585361e+01 1.000000000000e+00 
2.041752709182e+01 1.000000000000e+00 
2.118672862739e+01 1.000000000000e+00 
2.119406309575e+01 1.000000000000e+00 
2.120139756411e+01 1.000000000000e+00 
2.120873203248e+01 1.000000000000e+00 
2.121606650084e+01 1.000000000000e+00 
2.198793511581e+01 1.000000000000e+00 
2.199460281432e+01 1.000000000000e+00 
2.200127051283e+01 1.000000000000e+00 
2.200793821134e+01 1.000000000000e+00 
2.201460590985e+01 1.000000000000e+00 
2.278914160423e+01 1.000000000000e+00 
2.279514253289e+01 1.000000000000e+00 
2.280114346155e+01 1.000000000000e+00 
2.280714439021e+01 1.000000000000e+00 
2.281314531887e+01 1.000000000000e+00 
2.359034809265e+01 1.000000000000e+00 
2.359568225146e+01 1.000000000000e+00 
2.360101641026e+01 1.000000000000e+00 
2.360635056907e+01 1.000000000000e+00 
2.361168472788e+01 1.000000000000e+00 
2.439155458107e+01 1.000000000000e+00 
2.439622197002e+01 1.000000000000e+00 
2.440088935898e+01 1.000000000000e+00 
2.440555674794e+01 1.000000000000e+00 
2.441022413690e+01 1.000000000000e+00 
2.519276106948e+01 1.000000000000e+00 
2.519676168859e+01 1.000000000000e+00 
2.520076230770e+01 1.000000000000e+00 
2.520476292681e+01 1.000000000000e+00 
2.520876354591e+01 1.000000000000e+00 
2.599396755790e+01 1.000000000000e+00 
2.599730140716e+01 1.000000000000e+00 
2.600063525642e+01 1.000000000000e+00 
2.600396910567e+01 1.000000000000e+00 
2.600730295493e+01 1.000000000000e+00 
2.679517404632e+01 1.000000000000e+00 
2.679784112573e+01 1.000000000000e+00 
2.680050820513e+01 1.000000000000e+00 
2.680317528454e+01 1.000000000000e+00 
2.680584236394e+01 1.000000000000e+00 
2.759638053474e+01 1.000000000000e+00 
2.759838084430e+01 1.000000000000e+00 
2.760038115385e+01 1.000000000000e+00 
2.760238146340e+01 1.000000000000e+00 
2.760438177296e+01 1.000000000000e+00 
2.839758702316e+01 1.000000000000e+00 
2.839892056286e+01 1.000000000000e+00 
2.840025410257e+01 1.000000000000e+00 
2.840158764227e+01 1.000000000000e+00 
2.840292118197e+01 1.000000000000e+00 
2.919879351158e+01 1.000000000000e+00 
2.919946028143e+01 1.000000000000e+00 
2.920012705128e+01 1.000000000000e+00 
2.920079382113e+01 1.000000000000e+00 
2.920146059099e+01 1.000000000000e+00 
3.000000000000e+01 1.000000000000e+00 
3.000000000000e+01 1.000000000000e+00 
3.000000000000e+01 1.000000000000e+00 
3.000000000000e+01 1.000000000000e+00 
3.000000000000e+01 1.000000000000e+00 
3.002500000000e+01 9.876207709446e-01 
3.002500000000e+01 9.876207709446e-01 
3.002500000000e+01 9.876207709446e-01 
3.002500000000e+01 9.876207709446e-01 
3.002500000000e+01 9.876207709446e-01 
3.005000000000e+01 9.697756439369e-01 
3.005000000000e+01 9.697756439369e-01 
3.005000000000e+01 9.697756439369e-01 
3.005000000000e+01 9.697756439369e-01 
3.005000000000e+01 9.697756439369e-01 
3.007500000000e+01 9.507134089444e-01 
3.007500000000e+01 9.507134089444e-01 
3.007500000000e+01 9.507134089444e-01 
3.007500000000e+01 9.507134089444e-01 
3.007500000000e+01 9.507134089444e-01 
3.010000000000e+01 9.315621650298e-01 
3.010000000000e+01 9.315621650298e-01 
3.010000000000e+01 9.315621650298e-01 
3.010000000000e+01 9.315621650298e-01 
3.010000000000e+01 9.315621650298e-01 
3.012500000000e+01 9.128758324042e-01 
3.012500000000e+01 9.128758324042e-01 
3.012500000000e+01 9.128758324042e-01 
3.012500000000e+01 9.128758324042e-01 
3.012500000000e+01 9.128758324042e-01 
3.015000000000e+01 8.949248043380e-01 
3.015000000000e+01 8.949248043380e-01 
3.015000000000e+01 8.949248043380e-01 
3.015000000000e+01 8.949248043380e-01 
3.015000000000e+01 8.949248043380e-01 
3.017500000000e+01 8.778290027968e-01 
3.017500000000e+01 8.778290027968e-01 
3.017500000000e+01 8.778290027968e-01 
3.017500000000e+01 8.778290027968e-01 
3.017500000000e+01 8.778290027968e-01 
3.020000000000e+01 8.616255702900e-01 
3.020000000000e+01 8.616255702900e-01 
3.020000000000e+01 8.616255702900e-01 
3.020000000000e+01 8.616255702900e-01 
3.020000000000e+01 8.616255702900e-01 
3.022500000000e+01 8.463059583920e-01 
3.022500000000e+01 8.463059583920e-01 
3.022500000000e+01 8.463059583920e-01 
3.022500000000e+01 8.463059583920e-01 
3.022500000000e+01 8.463059583920e-01 
3.025000000000e+01 8.318370344398e-01 
3.025000000000e+01 8.318370344398e-01 
3.025000000000e+01 8.318370344398e-01 
3.025000000000e+01 8.318370344398e-01 
3.025000000000e+01 8.318370344398e-01 
3.027500000000e+01 8.181733156316e-01 
3.027500000000e+01 8.181733156316e-01 
3.027500000000e+01 8.181733156316e-01 
3.027500000000e+01 8.181733156316e-01 
3.027500000000e+01 8.181733156316e-01 
3.030000000000e+01 8.052640970350e-01 
3.030000000000e+01 8.052640970350e-01 
3.030000000000e+01 8.052640970350e-01 
3.030000000000e+01 8.052640970350e-01 
3.030000000000e+01 8.052640970350e-01 
3.032500000000e+01 7.930575753856e-01 
3.032500000000e+01 7.930575753856e-01 
3.032500000000e+01 7.930575753856e-01 
3.032500000000e+01 7.930575753856e-01 
3.032500000000e+01 7.930575753856e-01 
3.035000000000e+01 7.815031815402e-01 
3.035000000000e+01 7.815031815402e-01 
3.035000000000e+01 7.815031815402e-01 
3.035000000000e+01 7.815031815402e-01 
3.035000000000e+01 7.815031815402e-01 
3.037500000000e+01 7.705528376764e-01 
3.037500000000e+01 7.705528376764e-01 
3.037500000000e+01 7.705528376764e-01 
3.037500000000e+01 7.705528376764e-01 
3.037500000000e+01 7.705528376764e-01 
3.040000000000e+01 7.601615689674e-01 
3.040000000000e+01 7.601615689674e-01 
3.040000000000e+01 7.601615689674e-01 
3.040000000000e+01 7.601615689674e-01 
3.040000000000e+01 7.601615689674e-01 
3.042500000000e+01 7.502877306002e-01 
3.042500000000e+01 7.502877306002e-01 
3.042500000000e+01 7.502877306002e-01 
3.042500000000e+01 7.502877306002e-01 
3.042500000000e+01 7.502877306002e-01 
3.045000000000e+01 7.408930096824e-01 
3.045000000000e+01 7.408930096824e-01 
3.045000000000e+01 7.408930096824e-01 
3.045000000000e+01 7.408930096824e-01 
3.045000000000e+01 7.408930096824e-01 
3.047500000000e+01 7.319422999608e-01 
3.047500000000e+01 7.319422999608e-01 
3.047500000000e+01 7.319422999608e-01 
3.047500000000e+01 7.319422999608e-01 
3.047500000000e+01 7.319422999608e-01 
3.050000000000e+01 7.234035093991e-01 
3.050000000000e+01 7.234035093991e-01 
3.050000000000e+01 7.234035093991e-01 
3.050000000000e+01 7.234035093991e-01 
3.050000000000e+01 7.234035093991e-01 
3.052500000000e+01 7.152473371957e-01 
3.052500000000e+01 7.152473371957e-01 
3.052500000000e+01 7.152473371957e-01 
3.052500000000e+01 7.152473371957e-01 
3.052500000000e+01 7.152473371957e-01 
3.055000000000e+01 7.074470422112e-01 
3.055000000000e+01 7.074470422112e-01 
3.055000000000e+01 7.074470422112e-01 
3.055000000000e+01 7.074470422112e-01 
3.055000000000e+01 7.074470422112e-01 
3.057500000000e+01 6.999782156504e-01 
3.057500000000e+01 6.999782156504e-01 
3.057500000000e+01 6.999782156504e-01 
3.057500000000e+01 6.999782156504e-01 
3.057500000000e+01 6.999782156504e-01 
3.060000000000e+01 6.928185651596e-01 
3.060000000000e+01 6.928185651596e-01 
3.060000000000e+01 6.928185651596e-01 
3.060000000000e+01 6.928185651596e-01 
3.060000000000e+01 6.928185651596e-01 
3.062500000000e+01 6.859477139679e-01 
3.062500000000e+01 6.859477139679e-01 
3.062500000000e+01 6.859477139679e-01 
3.062500000000e+01 6.859477139679e-01 
3.062500000000e+01 6.859477139679e-01 
3.065000000000e+01 6.793470165436e-01 
3.065000000000e+01 6.793470165436e-01 
3.065000000000e+01 6.793470165436e-01 
3.065000000000e+01 6.793470165436e-01 
3.065000000000e+01 6.793470165436e-01 
3.067500000000e+01 6.729993909360e-01 
3.067500000000e+01 6.729993909360e-01 
3.067500000000e+01 6.729993909360e-01 
3.067500000000e+01 6.729993909360e-01 
3.067500000000e+01 6.729993909360e-01 
3.070000000000e+01 6.668891672206e-01 
3.070000000000e+01 6.668891672206e-01 
3.070000000000e+01 6.668891672206e-01 
3.070000000000e+01 6.668891672206e-01 
3.070000000000e+01 6.668891672206e-01 
3.072500000000e+01 6.610019510587e-01 
3.072500000000e+01 6.610019510587e-01 
3.072500000000e+01 6.610019510587e-01 
3.072500000000e+01 6.610019510587e-01 
3.072500000000e+01 6.610019510587e-01 
3.075000000000e+01 6.553245011865e-01 
3.075000000000e+01 6.553245011865e-01 
3.075000000000e+01 6.553245011865e-01 
3.075000000000e+01 6.553245011865e-01 
3.075000000000e+01 6.553245011865e-01 
3.077500000000e+01 6.498446195878e-01 
3.077500000000e+01 6.498446195878e-01 
3.077500000000e+01 6.498446195878e-01 
3.077500000000e+01 6.498446195878e-01 
3.077500000000e+01 6.498446195878e-01 
3.080000000000e+01 6.445510531188e-01 
3.080000000000e+01 6.445510531188e-01 
3.080000000000e+01 6.445510531188e-01 
3.080000000000e+01 6.445510531188e-01 
3.080000000000e+01 6.445510531188e-01 
3.082500000000e+01 6.394334054150e-01 
3.082500000000e+01 6.394334054150e-01 
3.082500000000e+01 6.394334054150e-01 
3.082500000000e+01 6.394334054150e-01 
3.082500000000e+01 6.394334054150e-01 
3.085000000000e+01 6.344820579917e-01 
3.085000000000e+01 6.344820579917e-01 
3.085000000000e+01 6.344820579917e-01 
3.085000000000e+01 6.344820579917e-01 
3.085000000000e+01 6.344820579917e-01 
3.087500000000e+01 6.296880995462e-01 
3.087500000000e+01 6.296880995462e-01 
3.087500000000e+01 6.296880995462e-01 
3.087500000000e+01 6.296880995462e-01 
3.087500000000e+01 6.296880995462e-01 
3.090000000000e+01 6.250432625624e-01 
3.090000000000e+01 6.250432625624e-01 
3.090000000000e+01 6.250432625624e-01 
3.090000000000e+01 6.250432625624e-01 
3.090000000000e+01 6.250432625624e-01 
3.092500000000e+01 6.205398664126e-01 
3.092500000000e+01 6.205398664126e-01 
3.092500000000e+01 6.205398664126e-01 
3.092500000000e+01 6.205398664126e-01 
3.092500000000e+01 6.205398664126e-01 
3.095000000000e+01 6.161707662369e-01 
3.095000000000e+01 6.161707662369e-01 
3.095000000000e+01 6.161707662369e-01 
3.095000000000e+01 6.161707662369e-01 
3.095000000000e+01 6.161707662369e-01 
3.097500000000e+01 6.119293069613e-01 
3.097500000000e+01 6.119293069613e-01 
3.097500000000e+01 6.119293069613e-01 
3.097500000000e+01 6.119293069613e-01 
3.097500000000e+01 6.119293069613e-01 
3.100000000000e+01 6.078092818871e-01 
3.100000000000e+01 6.078092818871e-01 
3.100000000000e+01 6.078092818871e-01 
3.100000000000e+01 6.078092818871e-01 
3.100000000000e+01 6.078092818871e-01 
3.102500000000e+01 6.038048953494e-01 
3.102500000000e+01 6.038048953494e-01 
3.102500000000e+01 6.038048953494e-01 
3.102500000000e+01 6.038048953494e-01 
3.102500000000e+01 6.038048953494e-01 
3.105000000000e+01 5.999107290013e-01 
3.105000000000e+01 5.999107290013e-01 
3.105000000000e+01 5.999107290013e-01 
3.105000000000e+01 5.999107290013e-01 
3.105000000000e+01 5.999107290013e-01 
3.107500000000e+01 5.961217113309e-01 
3.107500000000e+01 5.961217113309e-01 
3.107500000000e+01 5.961217113309e-01 
3.107500000000e+01 5.961217113309e-01 
3.107500000000e+01 5.961217113309e-01 
3.110000000000e+01 5.924330900627e-01 
3.110000000000e+01 5.924330900627e-01 
3.110000000000e+01 5.924330900627e-01 
3.110000000000e+01 5.924330900627e-01 
3.110000000000e+01 5.924330900627e-01 
3.112500000000e+01 5.888404071392e-01 
3.112500000000e+01 5.888404071392e-01 
3.112500000000e+01 5.888404071392e-01 
3.112500000000e+01 5.888404071392e-01 
3.112500000000e+01 5.888404071392e-01 
3.115000000000e+01 5.853394760078e-01 
3.115000000000e+01 5.853394760078e-01 
3.115000000000e+01 5.853394760078e-01 
3.115000000000e+01 5.853394760078e-01 
3.115000000000e+01 5.853394760078e-01 
3.117500000000e+01 5.819263609758e-01 
3.117500000000e+01 5.819263609758e-01 
3.117500000000e+01 5.819263609758e-01 
3.117500000000e+01 5.819263609758e-01 
3.117500000000e+01 5.819263609758e-01 
3.120000000000e+01 5.785973584173e-01 
3.120000000000e+01 5.785973584173e-01 
3.120000000000e+01 5.785973584173e-01 
3.120000000000e+01 5.785973584173e-01 
3.120000000000e+01 5.785973584173e-01 
3.122500000000e+01 5.753489796460e-01 
3.122500000000e+01 5.753489796460e-01 
3.122500000000e+01 5.753489796460e-01 
3.122500000000e+01 5.753489796460e-01 
3.122500000000e+01 5.753489796460e-01 
3.125000000000e+01 5.721779352840e-01 
3.125000000000e+01 5.721779352840e-01 
3.125000000000e+01 5.721779352840e-01 
3.125000000000e+01 5.721779352840e-01 
3.125000000000e+01 5.721779352840e-01 
3.127500000000e+01 5.690811209785e-01 
3.127500000000e+01 5.690811209785e-01 
3.127500000000e+01 5.690811209785e-01 
3.127500000000e+01 5.690811209785e-01 
3.127500000000e+01 5.690811209785e-01 
3.130000000000e+01 5.660556043336e-01 
3.130000000000e+01 5.660556043336e-01 
3.130000000000e+01 5.660556043336e-01 
3.130000000000e+01 5.660556043336e-01 
3.130000000000e+01 5.660556043336e-01 
3.132500000000e+01 5.630986129391e-01 
3.132500000000e+01 5.630986129391e-01 
3.132500000000e+01 5.630986129391e-01 
3.132500000000e+01 5.630986129391e-01 
3.132500000000e+01 5.630986129391e-01 
3.135000000000e+01 5.602075233904e-01 
3.135000000000e+01 5.602075233904e-01 
3.135000000000e+01 5.602075233904e-01 
3.135000000000e+01 5.602075233904e-01 
3.135000000000e+01 5.602075233904e-01 
3.137500000000e+01 5.573798512060e-01 
3.137500000000e+01 5.573798512060e-01 
3.137500000000e+01 5.573798512060e-01 
3.137500000000e+01 5.573798512060e-01 
3.137500000000e+01 5.573798512060e-01 
3.140000000000e+01 5.546132415581e-01 
3.140000000000e+01 5.546132415581e-01 
3.140000000000e+01 5.546132415581e-01 
3.140000000000e+01 5.546132415581e-01 
3.140000000000e+01 5.546132415581e-01 
3.142500000000e+01 5.519054607414e-01 
3.142500000000e+01 5.519054607414e-01 
3.142500000000e+01 5.519054607414e-01 
3.142500000000e+01 5.519054607414e-01 
3.142500000000e+01 5.519054607414e-01 
3.145000000000e+01 5.492543883110e-01 
3.145000000000e+01 5.492543883110e-01 
3.145000000000e+01 5.492543883110e-01 
3.145000000000e+01 5.492543883110e-01 
3.145000000000e+01 5.492543883110e-01 
3.147500000000e+01 5.466580098318e-01 
3.147500000000e+01 5.466580098318e-01 
3.147500000000e+01 5.466580098318e-01 
3.147500000000e+01 5.466580098318e-01 
3.147500000000e+01 5.466580098318e-01 
3.150000000000e+01 5.441144101810e-01 
3.150000000000e+01 5.441144101810e-01 
3.150000000000e+01 5.441144101810e-01 
3.150000000000e+01 5.441144101810e-01 
3.150000000000e+01 5.441144101810e-01 
3.152500000000e+01 5.416217673588e-01 
3.152500000000e+01 5.416217673588e-01 
3.152500000000e+01 5.416217673588e-01 
3.152500000000e+01 5.416217673588e-01 
3.152500000000e+01 5.416217673588e-01 
3.155000000000e+01 5.391783467591e-01 
3.155000000000e+01 5.391783467591e-01 
3.155000000000e+01 5.391783467591e-01 
3.155000000000e+01 5.391783467591e-01 
3.155000000000e+01 5.391783467591e-01 
3.157500000000e+01 5.367824958643e-01 
3.157500000000e+01 5.367824958643e-01 
3.157500000000e+01 5.367824958643e-01 
3.157500000000e+01 5.367824958643e-01 
3.157500000000e+01 5.367824958643e-01 
3.160000000000e+01 5.344326393247e-01 
3.160000000000e+01 5.344326393247e-01 
3.160000000000e+01 5.344326393247e-01 
3.160000000000e+01 5.344326393247e-01 
3.160000000000e+01 5.344326393247e-01 
3.162500000000e+01 5.321272743928e-01 
3.162500000000e+01 5.321272743928e-01 
3.162500000000e+01 5.321272743928e-01 
3.162500000000e+01 5.321272743928e-01 
3.162500000000e+01 5.321272743928e-01 
3.165000000000e+01 5.298649666811e-01 
3.165000000000e+01 5.298649666811e-01 
3.165000000000e+01 5.298649666811e-01 
3.165000000000e+01 5.298649666811e-01 
3.165000000000e+01 5.298649666811e-01 
3.167500000000e+01 5.276443462180e-01 
3.167500000000e+01 5.276443462180e-01 
3.167500000000e+01 5.276443462180e-01 
3.167500000000e+01 5.276443462180e-01 
3.167500000000e+01 5.276443462180e-01 
3.170000000000e+01 5.254641037767e-01 
3.170000000000e+01 5.254641037767e-01 
3.170000000000e+01 5.254641037767e-01 
3.170000000000e+01 5.254641037767e-01 
3.170000000000e+01 5.254641037767e-01 
3.172500000000e+01 5.233229874560e-01 
3.172500000000e+01 5.233229874560e-01 
3.172500000000e+01 5.233229874560e-01 
3.172500000000e+01 5.233229874560e-01 
3.172500000000e+01 5.233229874560e-01 
3.175000000000e+01 5.212197994921e-01 
3.175000000000e+01 5.212197994921e-01 
3.175000000000e+01 5.212197994921e-01 
3.175000000000e+01 5.212197994921e-01 
3.175000000000e+01 5.212197994921e-01 
3.177500000000e+01 5.191533932842e-01 
3.177500000000e+01 5.191533932842e-01 
3.177500000000e+01 5.191533932842e-01 
3.177500000000e+01 5.191533932842e-01 
3.177500000000e+01 5.191533932842e-01 
3.180000000000e+01 5.171226706164e-01 
3.180000000000e+01 5.171226706164e-01 
3.180000000000e+01 5.171226706164e-01 
3.180000000000e+01 5.171226706164e-01 
3.180000000000e+01 5.171226706164e-01 
3.182500000000e+01 5.151265790614e-01 
3.182500000000e+01 5.151265790614e-01 
3.182500000000e+01 5.151265790614e-01 
3.182500000000e+01 5.151265790614e-01 
3.182500000000e+01 5.151265790614e-01 
3.185000000000e+01 5.131641095520e-01 
3.185000000000e+01 5.131641095520e-01 
3.185000000000e+01 5.131641095520e-01 
3.185000000000e+01 5.131641095520e-01 
3.185000000000e+01 5.131641095520e-01 
3.187500000000e+01 5.112342941078e-01 
3.187500000000e+01 5.112342941078e-01 
3.187500000000e+01 5.112342941078e-01 
3.187500000000e+01 5.112342941078e-01 
3.187500000000e+01 5.112342941078e-01 
3.190000000000e+01 5.093362037054e-01 
3.190000000000e+01 5.093362037054e-01 
3.190000000000e+01 5.093362037054e-01 
3.190000000000e+01 5.093362037054e-01 
3.190000000000e+01 5.093362037054e-01 
3.192500000000e+01 5.074689462822e-01 
3.192500000000e+01 5.074689462822e-01 
3.192500000000e+01 5.074689462822e-01 
3.192500000000e+01 5.074689462822e-01 
3.192500000000e+01 5.074689462822e-01 
3.195000000000e+01 5.056316648631e-01 
3.195000000000e+01 5.056316648631e-01 
3.195000000000e+01 5.056316648631e-01 
3.195000000000e+01 5.056316648631e-01 
3.195000000000e+01 5.056316648631e-01 
3.197500000000e+01 5.038235358020e-01 
3.197500000000e+01 5.038235358020e-01 
3.197500000000e+01 5.038235358020e-01 
3.197500000000e+01 5.038235358020e-01 
3.197500000000e+01 5.038235358020e-01 
3.200000000000e+01 4.998888736342e-01 
3.200000000000e+01 4.999039445728e-01 
3.200000000000e+01 4.999114697750e-01 
3.200000000000e+01 4.998964125184e-01 
3.200000000000e+01 4.999189881022e-01 
3.379276106949e+01 4.170310180539e-01 
3.379676168860e+01 4.169015350720e-01 
3.380076230771e+01 4.167722260263e-01 
3.380476292681e+01 4.166430905169e-01 
3.380876354592e+01 4.165141281452e-01 
3.558552213898e+01 3.749981488368e-01 
3.559352337720e+01 3.748466498780e-01 
3.560152461541e+01 3.746954359838e-01 
3.560952585362e+01 3.745445062230e-01 
3.561752709184e+01 3.743938596684e-01 
3.737828320848e+01 3.473282499500e-01 
3.739028506580e+01 3.471713925951e-01 
3.740228692312e+01 3.470148713903e-01 
3.741428878044e+01 3.468586850804e-01 
3.742629063776e+01 3.467028324167e-01 
3.917104427797e+01 3.272381724698e-01 
3.918704675439e+01 3.270814325557e-01 
3.920304923082e+01 3.269250535674e-01 
3.921905170725e+01 3.267690340554e-01 
3.923505418368e+01 3.266133725781e-01 
4.096380534746e+01 3.117057352823e-01 
4.098380844299e+01 3.115510974630e-01 
4.100381153853e+01 3.113968324534e-01 
4.102381463406e+01 3.112429386854e-01 
4.104381772960e+01 3.110894146002e-01 
 TITLE = "Profiles along polylines"
 VARIABLES = "DIST" "SATURATION1" 
 ZONE T="TIME=1.797693134862e+308"
5.963805347459e+00 1.000000000000e+00 
5.983808442993e+00 1.000000000000e+00 
6.003811538527e+00 1.000000000000e+00 
6.023814634062e+00 1.000000000000e+00 
6.043817729596e+00 1.000000000000e+00 
6.765011835877e+00 1.000000000000e+00 
6.784348161560e+00 1.000000000000e+00 
6.803684487243e+00 1.000000000000e+00 
6.823020812926e+00 1.000000000000e+00 
6.842357138609e+00 1.000000000000e+00 
7.566218324294e+00 1.000000000000e+00 
7.584887880126e+00 1.000000000000e+00 
7.603557435958e+00 1.000000000000e+00 
7.622226991790e+00 1.000000000000e+00 
7.640896547622e+00 1.000000000000e+00 
8.367424812713e+00 1.000000000000e+00 
8.385427598694e+00 1.000000000000e+00 
8.403430384674e+00 1.000000000000e+00 
8.421433170655e+00 1.000000000000e+00 
8.439435956636e+00 1.000000000000e+00 
9.168631301131e+00 1.000000000000e+00 
9.185967317261e+00 1.000000000000e+00 
9.203303333390e+00 1.000000000000e+00 
9.220639349520e+00 1.000000000000e+00 
9.237975365650e+00 1.000000000000e+00 
9.969837789548e+00 1.000000000000e+00 
9.986507035827e+00 1.000000000000e+00 
1.000317628211e+01 1.000000000000e+00 
1.001984552838e+01 1.000000000000e+00 
1.003651477466e+01 1.000000000000e+00 
1.077104427797e+01 1.000000000000e+00 
1.078704675439e+01 1.000000000000e+00 
1.080304923082e+01 1.000000000000e+00 
1.081905170725e+01 1.000000000000e+00 
1.083505418368e+01 1.000000000000e+00 
1.157225076638e+01 1.000000000000e+00 
1.158758647296e+01 1.000000000000e+00 
1.160292217954e+01 1.000000000000e+00 
1.161825788611e+01 1.000000000000e+00 
1.163359359269e+01 1.000000000000e+00 
1.237345725480e+01 1.000000000000e+00 
1.238812619153e+01 1.000000000000e+00 
1.240279512825e+01 1.000000000000e+00 
1.241746406498e+01 1.000000000000e+00 
1.243213300170e+01 1.000000000000e+00 
1.317466374322e+01 1.000000000000e+00 
1.318866591009e+01 1.000000000000e+00 
1.320266807696e+01 1.000000000000e+00 
1.321667024384e+01 1.000000000000e+00 
1.323067241071e+01 1.000000000000e+00 
1.397587023163e+01 1.000000000000e+00 
1.398920562866e+01 1.000000000000e+00 
1.400254102568e+01 1.000000000000e+00 
1.401587642270e+01 1.000000000000e+00 
1.402921181972e+01 1.000000000000e+00 
1.477707672005e+01 1.000000000000e+00 
1.478974534722e+01 1.000000000000e+00 
1.480241397439e+01 1.000000000000e+00 
1.481508260156e+01 1.000000000000e+00 
1.482775122874e+01 1.000000000000e+00 
1.557828320846e+01 1.000000000000e+00 
1.559028506578e+01 1.000000000000e+00 
1.560228692311e+01 1.000000000000e+00 
1.561428878043e+01 1.000000000000e+00 
1.562629063775e+01 1.000000000000e+00 
1.637948969688e+01 1.000000000000e+00 
1.639082478435e+01 1.000000000000e+00 
1.640215987182e+01 1.000000000000e+00 
1.641349495929e+01 1.000000000000e+00 
1.642483004676e+01 1.000000000000e+00 
1.718069618530e+01 1.000000000000e+00 
1.719136450291e+01 1.000000000000e+00 
1.720203282053e+01 1.000000000000e+00 
1.721270113815e+01 1.000000000000e+00 
1.722336945577e+01 1.000000000000e+00 
1.798190267371e+01 1.000000000000e+00 
1.799190422148e+01 1.000000000000e+00 
1.800190576925e+01 1.000000000000e+00 
1.801190731701e+01 1.000000000000e+00 
1.802190886478e+01 1.000000000000e+00 
1.878310916213e+01 1.000000000000e+00 
1.879244394005e+01 1.000000000000e+00 
1.880177871796e+01 1.000000000000e+00 
1.881111349588e+01 1.000000000000e+00 
1.882044827379e+01 1.000000000000e+00 
1.958431565055e+01 1.000000000000e+00 
1.959298365861e+01 1.000000000000e+00 
1.960165166668e+01 1.000000000000e+00 
1.961031967474e+01 1.000000000000e+00 
1.961898768281e+01 1.000000000000e+00 
2.038552213897e+01 1.000000000000e+00 
2.039352337718e+01 1.000000000000e+00 
2.040152461540e+01 1.000000000000e+00 
2.040952585361e+01 1.000000000000e+00 
2.041752709182e+01 1.000000000000e+00 
2.118672862739e+01 1.000000000000e+00 
2.119406309575e+01 1.000000000000e+00 
2.120139756411e+01 1.000000000000e+00 
2.120873203248e+01 1.000000000000e+00 
2.121606650084e+01 1.000000000000e+00 
2.198793511581e+01 1.000000000000e+00 
2.199460281432e+01 1.000000000000e+00 
2.200127051283e+01 1.000000000000e+00 
2.200793821134e+01 1.000000000000e+00 
2.201460590985e+01 1.000000000000e+00 
2.278914160423e+01 1.000000000000e+00 
2.279514253289e+01 1.000000000000e+00 
2.280114346155e+01 1.000000000000e+00 
2.280714439021e+01 1.000000000000e+00 
2.281314531887e+01 1.000000000000e+00 
2.359034809265e+01 1.000000000000e+00 
2.359568225146e+01 1.000000000000e+00 
2.360101641026e+01 1.000000000000e+00 
2.360635056907e+01 1.000000000000e+00 
2.361168472788e+01 1.000000000000e+00 
2.439155458107e+01 1.000000000000e+00 
2.439622197002e+01 1.000000000000e+00 
2.440088935898e+01 1.000000000000e+00 
2.440555674794e+01 1.000000000000e+00 
2.441022413690e+01 1.000000000000e+00 
2.519276106948e+01 1.000000000000e+00 
2.519676168859e+01 1.000000000000e+00 
2.520076230770e+01 1.000000000000e+00 
2.520476292681e+01 1.000000000000e+00 
2.520876354591e+01 1.000000000000e+00 
2.599396755790e+01 1.000000000000e+00 
2.599730140716e+01 1.000000000000e+00 
2.600063525642e+01 1.000000000000e+00 
2.600396910567e+01 1.000000000000e+00 
2.600730295493e+01 1.000000000000e+00 
2.679517404632e+01 1.000000000000e+00 
2.679784112573e+01 1.000000000000e+00 
2.680050820513e+01 1.000000000000e+00 
2.680317528454e+01 1.000000000000e+00 
2.680584236394e+01 1.000000000000e+00 
2.759638053474e+01 1.000000000000e+00 
2.759838084430e+01 1.000000000000e+00 
2.760038115385e+01 1.000000000000e+00 
2.760238146340e+01 1.000000000000e+00 
2.760438177296e+01 1.000000000000e+00 
2.839758702316e+01 1.000000000000e+00 
2.839892056286e+01 1.000000000000e+00 
2.840025410257e+01 1.000000000000e+00 
2.840158764227e+01 1.000000000000e+00 
2.840292118197e+01 1.000000000000e+00 
2.919879351158e+01 1.000000000000e+00 
2.919946028143e+01 1.000000000000e+00 
2.920012705128e+01 1.000000000000e+00 
2.920079382113e+01 1.000000000000e+00 
2.920146059099e+01 1.000000000000e+00 
3.000000000000e+01 1.000000000000e+00 
3.000000000000e+01 1.000000000000e+00 
3.000000000000e+01 1.000000000000e+00 
3.000000000000e+01 1.000000000000e+00 
3.000000000000e+01 1.000000000000e+00 
3.002500000000e+01 1.000000000000e+00 
3.002500000000e+01 1.000000000000e+00 
3.002500000000e+01 1.000000000000e+00 
3.002500000000e+01 1.000000000000e+00 
3.002500000000e+01 1.000000000000e+00 
3.005000000000e+01 1.000000000000e+00 
3.005000000000e+01 1.000000000000e+00 
3.005000000000e+01 1.000000000000e+00 
3.005000000000e+01 1.000000000000e+00 
3.005000000000e+01 1.000000000000e+00 
3.007500000000e+01 1.000000000000e+00 
3.007500000000e+01 1.000000000000e+00 
3.007500000000e+01 1.000000000000e+00 
3.007500000000e+01 1.000000000000e+00 
3.007500000000e+01 1.000000000000e+00 
3.010000000000e+01 1.000000000000e+00 
3.010000000000e+01 1.000000000000e+00 
3.010000000000e+01 1.000000000000e+00 
3.010000000000e+01 1.000000000000e+00 
3.010000000000e+01 1.000000000000e+00 
3.012500000000e+01 1.000000000000e+00 
3.012500000000e+01 1.000000000000e+00 
3.012500000000e+01 1.000000000000e+00 
3.012500000000e+01 1.000000000000e+00 
3.012500000000e+01 1.000000000000e+00 
3.015000000000e+01 1.000000000000e+00 
3.015000000000e+01 1.000000000000e+00 
3.015000000000e+01 1.000000000000e+00 