 TITLE = "Profiles along polylines"
 VARIABLES = "DIST" "SATURATION1" 
 ZONE T="TIME=0.000000000000e+00"
3.763464838686e+00 1.000000000000e+00 
3.783467934221e+00 1.000000000000e+00 
3.803471029755e+00 1.000000000000e+00 
3.823474125289e+00 1.000000000000e+00 
3.843477220824e+00 1.000000000000e+00 
4.638016010730e+00 1.000000000000e+00 
4.657352336413e+00 1.000000000000e+00 
4.676688662096e+00 1.000000000000e+00 
4.696024987779e+00 1.000000000000e+00 
4.715361313463e+00 1.000000000000e+00 
5.512567182773e+00 1.000000000000e+00 
5.531236738605e+00 1.000000000000e+00 
5.549906294437e+00 1.000000000000e+00 
5.568575850269e+00 1.000000000000e+00 
5.587245406101e+00 1.000000000000e+00 
6.387118354817e+00 1.000000000000e+00 
6.405121140798e+00 1.000000000000e+00 
6.423123926779e+00 1.000000000000e+00 
6.441126712760e+00 1.000000000000e+00 
6.459129498741e+00 1.000000000000e+00 
7.261669526861e+00 1.000000000000e+00 
7.279005542991e+00 1.000000000000e+00 
7.296341559121e+00 1.000000000000e+00 
7.313677575251e+00 1.000000000000e+00 
7.331013591380e+00 1.000000000000e+00 
8.136220698904e+00 1.000000000000e+00 
8.152889945183e+00 1.000000000000e+00 
8.169559191462e+00 1.000000000000e+00 
8.186228437740e+00 1.000000000000e+00 
8.202897684019e+00 1.000000000000e+00 
9.010771870948e+00 1.000000000000e+00 
9.026774347375e+00 1.000000000000e+00 
9.042776823802e+00 1.000000000000e+00 
9.058779300230e+00 1.000000000000e+00 
9.074781776657e+00 1.000000000000e+00 
9.885323042991e+00 1.000000000000e+00 
9.900658749567e+00 1.000000000000e+00 
9.915994456143e+00 1.000000000000e+00 
9.931330162720e+00 1.000000000000e+00 
9.946665869296e+00 1.000000000000e+00 
1.075987421503e+01 1.000000000000e+00 
1.077454315176e+01 1.000000000000e+00 
1.078921208848e+01 1.000000000000e+00 
1.080388102521e+01 1.000000000000e+00 
1.081854996193e+01 1.000000000000e+00 
1.163442538708e+01 1.000000000000e+00 
1.164842755395e+01 1.000000000000e+00 
1.166242972082e+01 1.000000000000e+00 
1.167643188770e+01 1.000000000000e+00 
1.169043405457e+01 1.000000000000e+00 
1.250897655912e+01 1.000000000000e+00 
1.252231195614e+01 1.000000000000e+00 
1.253564735316e+01 1.000000000000e+00 
1.254898275018e+01 1.000000000000e+00 
1.256231814721e+01 1.000000000000e+00 
1.338352773116e+01 1.000000000000e+00 
1.339619635833e+01 1.000000000000e+00 
1.340886498550e+01 1.000000000000e+00 
1.342153361267e+01 1.000000000000e+00 
1.343420223984e+01 1.000000000000e+00 
1.425807890320e+01 1.000000000000e+00 
1.427008076052e+01 1.000000000000e+00 
1.428208261784e+01 1.000000000000e+00 
1.429408447516e+01 1.000000000000e+00 
1.430608633248e+01 1.000000000000e+00 
1.513263007524e+01 1.000000000000e+00 
1.514396516271e+01 1.000000000000e+00 
1.515530025018e+01 1.000000000000e+00 
1.516663533765e+01 1.000000000000e+00 
1.517797042512e+01 1.000000000000e+00 
1.600718124728e+01 1.000000000000e+00 
1.601784956490e+01 1.000000000000e+00 
1.602851788252e+01 1.000000000000e+00 
1.603918620014e+01 1.000000000000e+00 
1.604985451775e+01 1.000000000000e+00 
1.688173241932e+01 1.000000000000e+00 
1.689173396709e+01 1.000000000000e+00 
1.690173551486e+01 1.000000000000e+00 
1.691173706262e+01 1.000000000000e+00 
1.692173861039e+01 1.000000000000e+00 
1.775628359137e+01 1.000000000000e+00 
1.776561836928e+01 1.000000000000e+00 
1.777495314720e+01 1.000000000000e+00 
1.778428792512e+01 1.000000000000e+00 
1.779362270303e+01 1.000000000000e+00 
1.863083476341e+01 1.000000000000e+00 
1.863950277148e+01 1.000000000000e+00 
1.864817077954e+01 1.000000000000e+00 
1.865683878761e+01 1.000000000000e+00 
1.866550679567e+01 1.000000000000e+00 
1.950538593546e+01 1.000000000000e+00 
1.951338717367e+01 1.000000000000e+00 
1.952138841188e+01 1.000000000000e+00 
1.952938965010e+01 1.000000000000e+00 
1.953739088831e+01 1.000000000000e+00 
2.037993710750e+01 1.000000000000e+00 
2.038727157587e+01 1.000000000000e+00 
2.039460604423e+01 1.000000000000e+00 
2.040194051259e+01 1.000000000000e+00 
2.040927498095e+01 1.000000000000e+00 
2.125448827955e+01 1.000000000000e+00 
2.126115597806e+01 1.000000000000e+00 
2.126782367657e+01 1.000000000000e+00 
2.127449137508e+01 1.000000000000e+00 
2.128115907359e+01 1.000000000000e+00 
2.212903945159e+01 1.000000000000e+00 
2.213504038025e+01 1.000000000000e+00 
2.214104130891e+01 1.000000000000e+00 
2.214704223757e+01 1.000000000000e+00 
2.215304316623e+01 1.000000000000e+00 
2.300359062364e+01 1.000000000000e+00 
2.300892478245e+01 1.000000000000e+00 
2.301425894126e+01 1.000000000000e+00 
2.301959310007e+01 1.000000000000e+00 
2.302492725887e+01 1.000000000000e+00 
2.387814179568e+01 1.000000000000e+00 
2.388280918464e+01 1.000000000000e+00 
2.388747657360e+01 1.000000000000e+00 
2.389214396256e+01 1.000000000000e+00 
2.389681135152e+01 1.000000000000e+00 
2.475269296773e+01 1.000000000000e+00 
2.475669358684e+01 1.000000000000e+00 
2.476069420594e+01 1.000000000000e+00 
2.476469482505e+01 1.000000000000e+00 
2.476869544416e+01 1.000000000000e+00 
2.562724413977e+01 1.000000000000e+00 
2.563057798903e+01 1.000000000000e+00 
2.563391183829e+01 1.000000000000e+00 
2.563724568754e+01 1.000000000000e+00 
2.564057953680e+01 1.000000000000e+00 
2.650179531182e+01 1.000000000000e+00 
2.650446239122e+01 1.000000000000e+00 
2.650712947063e+01 1.000000000000e+00 
2.650979655003e+01 1.000000000000e+00 
2.651246362944e+01 1.000000000000e+00 
2.737634648386e+01 1.000000000000e+00 
2.737834679342e+01 1.000000000000e+00 
2.738034710297e+01 1.000000000000e+00 
2.738234741252e+01 1.000000000000e+00 
2.738434772208e+01 1.000000000000e+00 
2.825089765591e+01 1.000000000000e+00 
2.825223119561e+01 1.000000000000e+00 
2.825356473531e+01 1.000000000000e+00 
2.825489827502e+01 1.000000000000e+00 
2.825623181472e+01 1.000000000000e+00 
2.912544882795e+01 1.000000000000e+00 
2.912611559781e+01 1.000000000000e+00 
2.912678236766e+01 1.000000000000e+00 
2.912744913751e+01 1.000000000000e+00 
2.912811590736e+01 1.000000000000e+00 
3.000000000000e+01 1.000000000000e+00 
3.000000000000e+01 1.000000000000e+00 
3.000000000000e+01 1.000000000000e+00 
3.000000000000e+01 1.000000000000e+00 
3.000000000000e+01 1.000000000000e+00 
3.002500000000e+01 9.876207709446e-01 
3.002500000000e+01 9.876207709446e-01 
3.002500000000e+01 9.876207709446e-01 
3.002500000000e+01 9.876207709446e-01 
3.002500000000e+01 9.876207709446e-01 
3.005000000000e+01 9.697756439369e-01 
3.005000000000e+01 9.697756439369e-01 
3.005000000000e+01 9.697756439369e-01 
3.005000000000e+01 9.697756439369e-01 
3.005000000000e+01 9.697756439369e-01 
3.007500000000e+01 9.507134089444e-01 
3.007500000000e+01 9.507134089444e-01 
3.007500000000e+01 9.507134089444e-01 
3.007500000000e+01 9.507134089444e-01 
3.007500000000e+01 9.507134089444e-01 
3.010000000000e+01 9.315621650298e-01 
3.010000000000e+01 9.315621650298e-01 
3.010000000000e+01 9.315621650298e-01 
3.010000000000e+01 9.315621650298e-01 
3.010000000000e+01 9.315621650298e-01 
3.012500000000e+01 9.128758324042e-01 
3.012500000000e+01 9.128758324042e-01 
3.012500000000e+01 9.128758324042e-01 
3.012500000000e+01 9.128758324042e-01 
3.012500000000e+01 9.128758324042e-01 
3.015000000000e+01 8.949248043380e-01 
3.015000000000e+01 8.949248043380e-01 
3.015000000000e+01 8.949248043380e-01 
3.015000000000e+01 8.949248043380e-01 
3.015000000000e+01 8.949248043380e-01 
3.017500000000e+01 8.778290027968e-01 
3.017500000000e+01 8.778290027968e-01 
3.017500000000e+01 8.778290027968e-01 
3.017500000000e+01 8.778290027968e-01 
3.017500000000e+01 8.778290027968e-01 
3.020000000000e+01 8.616255702900e-01 
3.020000000000e+01 8.616255702900e-01 
3.020000000000e+01 8.616255702900e-01 
3.020000000000e+01 8.616255702900e-01 
3.020000000000e+01 8.616255702900e-01 
3.022500000000e+01 8.463059583920e-01 
3.022500000000e+01 8.463059583920e-01 
3.022500000000e+01 8.463059583920e-01 
3.022500000000e+01 8.463059583920e-01 
3.022500000000e+01 8.463059583920e-01 
3.025000000000e+01 8.318370344398e-01 
3.025000000000e+01 8.318370344398e-01 
3.025000000000e+01 8.318370344398e-01 
3.025000000000e+01 8.318370344398e-01 
3.025000000000e+01 8.318370344398e-01 
3.027500000000e+01 8.181733156316e-01 
3.027500000000e+01 8.181733156316e-01 
3.027500000000e+01 8.181733156316e-01 
3.027500000000e+01 8.181733156316e-01 
3.027500000000e+01 8.181733156316e-01 
3.030000000000e+01 8.052640970350e-01 
3.030000000000e+01 8.052640970350e-01 
3.030000000000e+01 8.052640970350e-01 
3.030000000000e+01 8.052640970350e-01 
3.030000000000e+01 8.052640970350e-01 
3.032500000000e+01 7.930575753856e-01 
3.032500000000e+01 7.930575753856e-01 
3.032500000000e+01 7.930575753856e-01 
3.032500000000e+01 7.930575753856e-01 
3.032500000000e+01 7.930575753856e-01 
3.035000000000e+01 7.815031815402e-01 
3.035000000000e+01 7.815031815402e-01 
3.035000000000e+01 7.815031815402e-01 
3.035000000000e+01 7.815031815402e-01 
3.035000000000e+01 7.815031815402e-01 
3.037500000000e+01 7.705528376764e-01 
3.037500000000e+01 7.705528376764e-01 
3.037500000000e+01 7.705528376764e-01 
3.037500000000e+01 7.705528376764e-01 
3.037500000000e+01 7.705528376764e-01 
3.040000000000e+01 7.601615689674e-01 
3.040000000000e+01 7.601615689674e-01 
3.040000000000e+01 7.601615689674e-01 
3.040000000000e+01 7.601615689674e-01 
3.040000000000e+01 7.601615689674e-01 
3.042500000000e+01 7.502877306002e-01 
3.042500000000e+01 7.502877306002e-01 
3.042500000000e+01 7.502877306002e-01 
3.042500000000e+01 7.502877306002e-01 
3.042500000000e+01 7.502877306002e-01 
3.045000000000e+01 7.408930096824e-01 
3.045000000000e+01 7.408930096824e-01 
3.045000000000e+01 7.408930096824e-01 
3.045000000000e+01 7.408930096824e-01 
3.045000000000e+01 7.408930096824e-01 
3.047500000000e+01 7.319422999608e-01 
3.047500000000e+01 7.319422999608e-01 
3.047500000000e+01 7.319422999608e-01 
3.047500000000e+01 7.319422999608e-01 
3.047500000000e+01 7.319422999608e-01 
3.050000000000e+01 7.234035093991e-01 
3.050000000000e+01 7.234035093991e-01 
3.050000000000e+01 7.234035093991e-01 
3.050000000000e+01 7.234035093991e-01 
3.050000000000e+01 7.234035093991e-01 
3.052500000000e+01 7.152473371957e-01 
3.052500000000e+01 7.152473371957e-01 
3.052500000000e+01 7.152473371957e-01 
3.052500000000e+01 7.152473371957e-01 
3.052500000000e+01 7.152473371957e-01 
3.055000000000e+01 7.074470422112e-01 
3.055000000000e+01 7.074470422112e-01 
3.055000000000e+01 7.074470422112e-01 
3.055000000000e+01 7.074470422112e-01 
3.055000000000e+01 7.074470422112e-01 
3.057500000000e+01 6.999782156504e-01 
3.057500000000e+01 6.999782156504e-01 
3.057500000000e+01 6.999782156504e-01 
3.057500000000e+01 6.999782156504e-01 
3.057500000000e+01 6.999782156504e-01 
3.060000000000e+01 6.928185651596e-01 
3.060000000000e+01 6.928185651596e-01 
3.060000000000e+01 6.928185651596e-01 
3.060000000000e+01 6.928185651596e-01 
3.060000000000e+01 6.928185651596e-01 
3.062500000000e+01 6.859477139679e-01 
3.062500000000e+01 6.859477139679e-01 
3.062500000000e+01 6.859477139679e-01 
3.062500000000e+01 6.859477139679e-01 
3.062500000000e+01 6.859477139679e-01 
3.065000000000e+01 6.793470165436e-01 
3.065000000000e+01 6.793470165436e-01 
3.065000000000e+01 6.793470165436e-01 
3.065000000000e+01 6.793470165436e-01 
3.065000000000e+01 6.793470165436e-01 
3.067500000000e+01 6.729993909360e-01 
3.067500000000e+01 6.729993909360e-01 
3.067500000000e+01 6.729993909360e-01 
3.067500000000e+01 6.729993909360e-01 
3.067500000000e+01 6.729993909360e-01 
3.070000000000e+01 6.668891672206e-01 
3.070000000000e+01 6.668891672206e-01 
3.070000000000e+01 6.668891672206e-01 
3.070000000000e+01 6.668891672206e-01 
3.070000000000e+01 6.668891672206e-01 
3.072500000000e+01 6.610019510587e-01 
3.072500000000e+01 6.610019510587e-01 
3.072500000000e+01 6.610019510587e-01 
3.072500000000e+01 6.610019510587e-01 
3.072500000000e+01 6.610019510587e-01 
3.075000000000e+01 6.553245011865e-01 
3.075000000000e+01 6.553245011865e-01 
3.075000000000e+01 6.553245011865e-01 
3.075000000000e+01 6.553245011865e-01 
3.075000000000e+01 6.553245011865e-01 
3.077500000000e+01 6.498446195878e-01 
3.077500000000e+01 6.498446195878e-01 
3.077500000000e+01 6.498446195878e-01 
3.077500000000e+01 6.498446195878e-01 
3.077500000000e+01 6.498446195878e-01 
3.080000000000e+01 6.445510531188e-01 
3.080000000000e+01 6.445510531188e-01 
3.080000000000e+01 6.445510531188e-01 
3.080000000000e+01 6.445510531188e-01 
3.080000000000e+01 6.445510531188e-01 
3.082500000000e+01 6.394334054150e-01 
3.082500000000e+01 6.394334054150e-01 
3.082500000000e+01 6.394334054150e-01 
3.082500000000e+01 6.394334054150e-01 
3.082500000000e+01 6.394334054150e-01 
3.085000000000e+01 6.344820579917e-01 
3.085000000000e+01 6.344820579917e-01 
3.085000000000e+01 6.344820579917e-01 
3.085000000000e+01 6.344820579917e-01 
3.085000000000e+01 6.344820579917e-01 
3.087500000000e+01 6.296880995462e-01 
3.087500000000e+01 6.296880995462e-01 
3.087500000000e+01 6.296880995462e-01 
3.087500000000e+01 6.296880995462e-01 
3.087500000000e+01 6.296880995462e-01 
3.090000000000e+01 6.250432625624e-01 
3.090000000000e+01 6.250432625624e-01 
3.090000000000e+01 6.250432625624e-01 
3.090000000000e+01 6.250432625624e-01 
3.090000000000e+01 6.250432625624e-01 
3.092500000000e+01 6.205398664126e-01 
3.092500000000e+01 6.205398664126e-01 
3.092500000000e+01 6.205398664126e-01 
3.092500000000e+01 6.205398664126e-01 
3.092500000000e+01 6.205398664126e-01 
3.095000000000e+01 6.161707662369e-01 
3.095000000000e+01 6.161707662369e-01 
3.095000000000e+01 6.161707662369e-01 
3.095000000000e+01 6.161707662369e-01 
3.095000000000e+01 6.161707662369e-01 
3.097500000000e+01 6.119293069613e-01 
3.097500000000e+01 6.119293069613e-01 
3.097500000000e+01 6.119293069613e-01 
3.097500000000e+01 6.119293069613e-01 
3.097500000000e+01 6.119293069613e-01 
3.100000000000e+01 6.078092818871e-01 
3.100000000000e+01 6.078092818871e-01 
3.100000000000e+01 6.078092818871e-01 
3.100000000000e+01 6.078092818871e-01 
3.100000000000e+01 6.078092818871e-01 
3.102500000000e+01 6.038048953494e-01 
3.102500000000e+01 6.038048953494e-01 
3.102500000000e+01 6.038048953494e-01 
3.102500000000e+01 6.038048953494e-01 
3.102500000000e+01 6.038048953494e-01 
3.105000000000e+01 5.999107290013e-01 
3.105000000000e+01 5.999107290013e-01 
3.105000000000e+01 5.999107290013e-01 
3.105000000000e+01 5.999107290013e-01 
3.105000000000e+01 5.999107290013e-01 
3.107500000000e+01 5.961217113309e-01 
3.107500000000e+01 5.961217113309e-01 
3.107500000000e+01 5.961217113309e-01 
3.107500000000e+01 5.961217113309e-01 
3.107500000000e+01 5.961217113309e-01 
3.110000000000e+01 5.924330900627e-01 
3.110000000000e+01 5.924330900627e-01 
3.110000000000e+01 5.924330900627e-01 
3.110000000000e+01 5.924330900627e-01 
3.110000000000e+01 5.924330900627e-01 
3.112500000000e+01 5.888404071392e-01 
3.112500000000e+01 5.888404071392e-01 
3.112500000000e+01 5.888404071392e-01 
3.112500000000e+01 5.888404071392e-01 
3.112500000000e+01 5.888404071392e-01 
3.115000000000e+01 5.853394760078e-01 
3.115000000000e+01 5.853394760078e-01 
3.115000000000e+01 5.853394760078e-01 
3.115000000000e+01 5.853394760078e-01 
3.115000000000e+01 5.853394760078e-01 
3.117500000000e+01 5.819263609758e-01 
3.117500000000e+01 5.819263609758e-01 
3.117500000000e+01 5.819263609758e-01 
3.117500000000e+01 5.819263609758e-01 
3.117500000000e+01 5.819263609758e-01 
3.120000000000e+01 5.785973584173e-01 
3.120000000000e+01 5.785973584173e-01 
3.120000000000e+01 5.785973584173e-01 
3.120000000000e+01 5.785973584173e-01 
3.120000000000e+01 5.785973584173e-01 
3.122500000000e+01 5.753489796460e-01 
3.122500000000e+01 5.753489796460e-01 
3.122500000000e+01 5.753489796460e-01 
3.122500000000e+01 5.753489796460e-01 
3.122500000000e+01 5.753489796460e-01 
3.125000000000e+01 5.721779352840e-01 
3.125000000000e+01 5.721779352840e-01 
3.125000000000e+01 5.721779352840e-01 
3.125000000000e+01 5.721779352840e-01 
3.125000000000e+01 5.721779352840e-01 
3.127500000000e+01 5.690811209785e-01 
3.127500000000e+01 5.690811209785e-01 
3.127500000000e+01 5.690811209785e-01 
3.127500000000e+01 5.690811209785e-01 
3.127500000000e+01 5.690811209785e-01 
3.130000000000e+01 5.660556043336e-01 
3.130000000000e+01 5.660556043336e-01 
3.130000000000e+01 5.660556043336e-01 
3.130000000000e+01 5.660556043336e-01 
3.130000000000e+01 5.660556043336e-01 
3.132500000000e+01 5.630986129391e-01 
3.132500000000e+01 5.630986129391e-01 
3.132500000000e+01 5.630986129391e-01 
3.132500000000e+01 5.630986129391e-01 
3.132500000000e+01 5.630986129391e-01 
3.135000000000e+01 5.602075233904e-01 
3.135000000000e+01 5.602075233904e-01 
3.135000000000e+01 5.602075233904e-01 
3.135000000000e+01 5.602075233904e-01 
3.135000000000e+01 5.602075233904e-01 
3.137500000000e+01 5.573798512060e-01 
3.137500000000e+01 5.573798512060e-01 
3.137500000000e+01 5.573798512060e-01 
3.137500000000e+01 5.573798512060e-01 
3.137500000000e+01 5.573798512060e-01 
3.140000000000e+01 5.546132415581e-01 
3.140000000000e+01 5.546132415581e-01 
3.140000000000e+01 5.546132415581e-01 
3.140000000000e+01 5.546132415581e-01 
3.140000000000e+01 5.546132415581e-01 
3.142500000000e+01 5.519054607414e-01 
3.142500000000e+01 5.519054607414e-01 
3.142500000000e+01 5.519054607414e-01 
3.142500000000e+01 5.519054607414e-01 
3.142500000000e+01 5.519054607414e-01 
3.145000000000e+01 5.492543883110e-01 
3.145000000000e+01 5.492543883110e-01 
3.145000000000e+01 5.492543883110e-01 
3.145000000000e+01 5.492543883110e-01 
3.145000000000e+01 5.492543883110e-01 
3.147500000000e+01 5.466580098318e-01 
3.147500000000e+01 5.466580098318e-01 
3.147500000000e+01 5.466580098318e-01 
3.147500000000e+01 5.466580098318e-01 
3.147500000000e+01 5.466580098318e-01 
3.150000000000e+01 5.441144101810e-01 
3.150000000000e+01 5.441144101810e-01 
3.150000000000e+01 5.441144101810e-01 
3.150000000000e+01 5.441144101810e-01 
3.150000000000e+01 5.441144101810e-01 
3.152500000000e+01 5.416217673588e-01 
3.152500000000e+01 5.416217673588e-01 
3.152500000000e+01 5.416217673588e-01 
3.152500000000e+01 5.416217673588e-01 
3.152500000000e+01 5.416217673588e-01 
3.155000000000e+01 5.391783467591e-01 
3.155000000000e+01 5.391783467591e-01 
3.155000000000e+01 5.391783467591e-01 
3.155000000000e+01 5.391783467591e-01 
3.155000000000e+01 5.391783467591e-01 
3.157500000000e+01 5.367824958643e-01 
3.157500000000e+01 5.367824958643e-01 
3.157500000000e+01 5.367824958643e-01 
3.157500000000e+01 5.367824958643e-01 
3.157500000000e+01 5.367824958643e-01 
3.160000000000e+01 5.344326393247e-01 
3.160000000000e+01 5.344326393247e-01 
3.160000000000e+01 5.344326393247e-01 
3.160000000000e+01 5.344326393247e-01 
3.160000000000e+01 5.344326393247e-01 
3.162500000000e+01 5.321272743928e-01 
3.162500000000e+01 5.321272743928e-01 
3.162500000000e+01 5.321272743928e-01 
3.162500000000e+01 5.321272743928e-01 
3.162500000000e+01 5.321272743928e-01 
3.165000000000e+01 5.298649666811e-01 
3.165000000000e+01 5.298649666811e-01 
3.165000000000e+01 5.298649666811e-01 
3.165000000000e+01 5.298649666811e-01 
3.165000000000e+01 5.298649666811e-01 
3.167500000000e+01 5.276443462180e-01 
3.167500000000e+01 5.276443462180e-01 
3.167500000000e+01 5.276443462180e-01 
3.167500000000e+01 5.276443462180e-01 
3.167500000000e+01 5.276443462180e-01 
3.170000000000e+01 5.254641037767e-01 
3.170000000000e+01 5.254641037767e-01 
3.170000000000e+01 5.254641037767e-01 
3.170000000000e+01 5.254641037767e-01 
3.170000000000e+01 5.254641037767e-01 
3.172500000000e+01 5.233229874560e-01 
3.172500000000e+01 5.233229874560e-01 
3.172500000000e+01 5.233229874560e-01 
3.172500000000e+01 5.233229874560e-01 
3.172500000000e+01 5.233229874560e-01 
3.175000000000e+01 5.212197994921e-01 
3.175000000000e+01 5.212197994921e-01 
3.175000000000e+01 5.212197994921e-01 
3.175000000000e+01 5.212197994921e-01 
3.175000000000e+01 5.212197994921e-01 
3.177500000000e+01 5.191533932842e-01 
3.177500000000e+01 5.191533932842e-01 
3.177500000000e+01 5.191533932842e-01 
3.177500000000e+01 5.191533932842e-01 
3.177500000000e+01 5.191533932842e-01 
3.180000000000e+01 5.171226706164e-01 
3.180000000000e+01 5.171226706164e-01 
3.180000000000e+01 5.171226706164e-01 
3.180000000000e+01 5.171226706164e-01 
3.180000000000e+01 5.171226706164e-01 
3.182500000000e+01 5.151265790614e-01 
3.182500000000e+01 5.151265790614e-01 
3.182500000000e+01 5.151265790614e-01 
3.182500000000e+01 5.151265790614e-01 
3.182500000000e+01 5.151265790614e-01 
3.185000000000e+01 5.131641095520e-01 
3.185000000000e+01 5.131641095520e-01 
3.185000000000e+01 5.131641095520e-01 
3.185000000000e+01 5.131641095520e-01 
3.185000000000e+01 5.131641095520e-01 
3.187500000000e+01 5.112342941078e-01 
3.187500000000e+01 5.112342941078e-01 
3.187500000000e+01 5.112342941078e-01 
3.187500000000e+01 5.112342941078e-01 
3.187500000000e+01 5.112342941078e-01 
3.190000000000e+01 5.093362037054e-01 
3.190000000000e+01 5.093362037054e-01 
3.190000000000e+01 5.093362037054e-01 
3.190000000000e+01 5.093362037054e-01 
3.190000000000e+01 5.093362037054e-01 
3.192500000000e+01 5.074689462822e-01 
3.192500000000e+01 5.074689462822e-01 
3.192500000000e+01 5.074689462822e-01 
3.192500000000e+01 5.074689462822e-01 
3.192500000000e+01 5.074689462822e-01 
3.195000000000e+01 5.056316648631e-01 
3.195000000000e+01 5.056316648631e-01 
3.195000000000e+01 5.056316648631e-01 
3.195000000000e+01 5.056316648631e-01 
3.195000000000e+01 5.056316648631e-01 
3.197500000000e+01 5.038235358020e-01 
3.197500000000e+01 5.038235358020e-01 
3.197500000000e+01 5.038235358020e-01 
3.197500000000e+01 5.038235358020e-01 
3.197500000000e+01 5.038235358020e-01 
3.200000000000e+01 5.006718423180e-01 
3.200000000000e+01 5.006850994470e-01 
3.200000000000e+01 5.006917131958e-01 
3.200000000000e+01 5.006784758099e-01 
3.200000000000e+01 5.006983170229e-01 
3.335269296774e+01 4.324363186592e-01 
3.335669358684e+01 4.322849294516e-01 
3.336069420595e+01 4.321337674300e-01 
3.336469482506e+01 4.319828320136e-01 
3.336869544416e+01 4.318321226234e-01 
3.470538593547e+01 3.936478485624e-01 
3.471338717369e+01 3.934581226304e-01 
3.472138841190e+01 3.932688179823e-01 
3.472938965012e+01 3.930799329973e-01 
3.473739088833e+01 3.928914660632e-01 
3.605807890321e+01 3.669718681561e-01 
3.607008076053e+01 3.667684841208e-01 
3.608208261785e+01 3.665656287366e-01 
3.609408447517e+01 3.663632996122e-01 
3.610608633249e+01 3.661614943713e-01 
3.741077187095e+01 3.470777525738e-01 
3.742677434738e+01 3.468700714067e-01 
3.744277682380e+01 3.466629800271e-01 
3.745877930023e+01 3.464564755162e-01 
3.747478177666e+01 3.462505549762e-01 
3.876346483869e+01 3.314229668248e-01 
3.878346793422e+01 3.312150034762e-01 
3.880347102975e+01 3.310076654767e-01 
3.882347412529e+01 3.308009495481e-01 
3.884347722082e+01 3.305948524369e-01 
 TITLE = "Profiles along polylines"
 VARIABLES = "DIST" "SATURATION1" 
 ZONE T="TIME=1.797693134862e+308"
3.763464838686e+00 1.000000000000e+00 
3.783467934221e+00 1.000000000000e+00 
3.803471029755e+00 1.000000000000e+00 
3.823474125289e+00 1.000000000000e+00 
3.843477220824e+00 1.000000000000e+00 
4.638016010730e+00 1.000000000000e+00 
4.657352336413e+00 1.000000000000e+00 
4.676688662096e+00 1.000000000000e+00 
4.696024987779e+00 1.000000000000e+00 
4.715361313463e+00 1.000000000000e+00 
5.512567182773e+00 1.000000000000e+00 
5.531236738605e+00 1.000000000000e+00 
5.549906294437e+00 1.000000000000e+00 
5.568575850269e+00 1.000000000000e+00 
5.587245406101e+00 1.000000000000e+00 
6.387118354817e+00 1.000000000000e+00 
6.405121140798e+00 1.000000000000e+00 
6.423123926779e+00 1.000000000000e+00 
6.441126712760e+00 1.000000000000e+00 
6.459129498741e+00 1.000000000000e+00 
7.261669526861e+00 1.000000000000e+00 
7.279005542991e+00 1.000000000000e+00 
7.296341559121e+00 1.000000000000e+00 
7.313677575251e+00 1.000000000000e+00 
7.331013591380e+00 1.000000000000e+00 
8.136220698904e+00 1.000000000000e+00 
8.152889945183e+00 1.000000000000e+00 
8.169559191462e+00 1.000000000000e+00 
8.186228437740e+00 1.000000000000e+00 
8.202897684019e+00 1.000000000000e+00 
9.010771870948e+00 1.000000000000e+00 
9.026774347375e+00 1.000000000000e+00 
9.042776823802e+00 1.000000000000e+00 
9.058779300230e+00 1.000000000000e+00 
9.074781776657e+00 1.000000000000e+00 
9.885323042991e+00 1.000000000000e+00 
9.900658749567e+00 1.000000000000e+00 
9.915994456143e+00 1.000000000000e+00 
9.931330162720e+00 1.000000000000e+00 
9.946665869296e+00 1.000000000000e+00 
1.075987421503e+01 1.000000000000e+00 
1.077454315176e+01 1.000000000000e+00 
1.078921208848e+01 1.000000000000e+00 
1.080388102521e+01 1.000000000000e+00 
1.081854996193e+01 1.000000000000e+00 
1.163442538708e+01 1.000000000000e+00 
1.164842755395e+01 1.000000000000e+00 
1.166242972082e+01 1.000000000000e+00 
1.167643188770e+01 1.000000000000e+00 
1.169043405457e+01 1.000000000000e+00 
1.250897655912e+01 1.000000000000e+00 
1.252231195614e+01 1.000000000000e+00 
1.253564735316e+01 1.000000000000e+00 
1.254898275018e+01 1.000000000000e+00 
1.256231814721e+01 1.000000000000e+00 
1.338352773116e+01 1.000000000000e+00 
1.339619635833e+01 1.000000000000e+00 
1.340886498550e+01 1.000000000000e+00 
1.342153361267e+01 1.000000000000e+00 
1.343420223984e+01 1.000000000000e+00 
1.425807890320e+01 1.000000000000e+00 
1.427008076052e+01 1.000000000000e+00 
1.428208261784e+01 1.000000000000e+00 
1.429408447516e+01 1.000000000000e+00 
1.430608633248e+01 1.000000000000e+00 
1.513263007524e+01 1.000000000000e+00 
1.514396516271e+01 1.000000000000e+00 
1.515530025018e+01 1.000000000000e+00 
1.516663533765e+01 1.000000000000e+00 
1.517797042512e+01 1.000000000000e+00 
1.600718124728e+01 1.000000000000e+00 
1.601784956490e+01 1.000000000000e+00 
1.602851788252e+01 1.000000000000e+00 
1.603918620014e+01 1.000000000000e+00 
1.604985451775e+01 1.000000000000e+00 
1.688173241932e+01 1.000000000000e+00 
1.689173396709e+01 1.000000000000e+00 
1.690173551486e+01 1.000000000000e+00 
1.691173706262e+01 1.000000000000e+00 
1.692173861039e+01 1.000000000000e+00 
1.775628359137e+01 1.000000000000e+00 
1.776561836928e+01 1.000000000000e+00 
1.777495314720e+01 1.000000000000e+00 
1.778428792512e+01 1.000000000000e+00 
1.779362270303e+01 1.000000000000e+00 
1.863083476341e+01 1.000000000000e+00 
1.863950277148e+01 1.000000000000e+00 
1.864817077954e+01 1.000000000000e+00 
1.865683878761e+01 1.000000000000e+00 
1.866550679567e+01 1.000000000000e+00 
1.950538593546e+01 1.000000000000e+00 
1.951338717367e+01 1.000000000000e+00 
1.952138841188e+01 1.000000000000e+00 
1.952938965010e+01 1.000000000000e+00 
1.953739088831e+01 1.000000000000e+00 
2.037993710750e+01 1.000000000000e+00 
2.038727157587e+01 1.000000000000e+00 
2.039460604423e+01 1.000000000000e+00 
2.040194051259e+01 1.000000000000e+00 
2.040927498095e+01 1.000000000000e+00 
2.125448827955e+01 1.000000000000e+00 
2.126115597806e+01 1.000000000000e+00 
2.126782367657e+01 1.000000000000e+00 
2.127449137508e+01 1.000000000000e+00 
2.128115907359e+01 1.000000000000e+00 
2.212903945159e+01 1.000000000000e+00 
2.213504038025e+01 1.000000000000e+00 
2.214104130891e+01 1.000000000000e+00 
2.214704223757e+01 1.000000000000e+00 
2.215304316623e+01 1.000000000000e+00 
2.300359062364e+01 1.000000000000e+00 
2.300892478245e+01 1.000000000000e+00 
2.301425894126e+01 1.000000000000e+00 
2.301959310007e+01 1.000000000000e+00 
2.302492725887e+01 1.000000000000e+00 
2.387814179568e+01 1.000000000000e+00 
2.388280918464e+01 1.000000000000e+00 
2.388747657360e+01 1.000000000000e+00 
2.389214396256e+01 1.000000000000e+00 
2.389681135152e+01 1.000000000000e+00 
2.475269296773e+01 1.000000000000e+00 
2.475669358684e+01 1.000000000000e+00 
2.476069420594e+01 1.000000000000e+00 
2.476469482505e+01 1.000000000000e+00 
2.476869544416e+01 1.000000000000e+00 
2.562724413977e+01 1.000000000000e+00 
2.563057798903e+01 1.000000000000e+00 
2.563391183829e+01 1.000000000000e+00 
2.563724568754e+01 1.000000000000e+00 
2.564057953680e+01 1.000000000000e+00 
2.650179531182e+01 1.000000000000e+00 
2.650446239122e+01 1.000000000000e+00 
2.650712947063e+01 1.000000000000e+00 
2.650979655003e+01 1.000000000000e+00 
2.651246362944e+01 1.000000000000e+00 
2.737634648386e+01 1.000000000000e+00 
2.737834679342e+01 1.000000000000e+00 
2.738034710297e+01 1.000000000000e+00 
2.738234741252e+01 1.000000000000e+00 
2.738434772208e+01 1.000000000000e+00 
2.825089765591e+01 1.000000000000e+00 
2.825223119561e+01 1.000000000000e+00 
2.825356473531e+01 1.000000000000e+00 
2.825489827502e+01 1.000000000000e+00 
2.825623181472e+01 1.000000000000e+00 
2.912544882795e+01 1.000000000000e+00 
2.912611559781e+01 1.000000000000e+00 
2.912678236766e+01 1.000000000000e+00 
2.912744913751e+01 1.000000000000e+00 
2.912811590736e+01 1.000000000000e+00 
3.000000000000e+01 1.000000000000e+00 
3.000000000000e+01 1.000000000000e+00 
3.000000000000e+01 1.000000000000e+00 
3.000000000000e+01 1.000000000000e+00 
3.000000000000e+01 1.000000000000e+00 
3.002500000000e+01 1.000000000000e+00 
3.002500000000e+01 1.000000000000e+00 
3.002500000000e+01 1.000000000000e+00 
3.002500000000e+01 1.000000000000e+00 
3.002500000000e+01 1.000000000000e+00 
3.005000000000e+01 1.000000000000e+00 
3.005000000000e+01 1.000000000000e+00 
3.005000000000e+01 1.000000000000e+00 
3.005000000000e+01 1.000000000000e+00 
3.005000000000e+01 1.000000000000e+00 
3.007500000000e+01 1.000000000000e+00 
3.007500000000e+01 1.000000000000e+00 
3.007500000000e+01 1.000000000000e+00 
3.007500000000e+01 1.000000000000e+00 
3.007500000000e+01 1.000000000000e+00 
3.010000000000e+01 1.000000000000e+00 
3.010000000000e+01 1.000000000000e+00 
3.010000000000e+01 1.000000000000e+00 
3.010000000000e+01 1.000000000000e+00 
3.010000000000e+01 1.000000000000e+00 
3.012500000000e+01 1.000000000000e+00 
3.012500000000e+01 1.000000000000e+00 
3.012500000000e+01 1.000000000000e+00 
3.012500000000e+01 1.000000000000e+00 
3.012500000000e+01 1.000000000000e+00 
3.015000000000e+01 1.000000000000e+00 
3.015000000000e+01 1.000000000000e+00 
3.015000000000e+01 1.000000000000e+00 