 TITLE = "Profiles along polylines"
 VARIABLES = "DIST" "SATURATION1" 
 ZONE T="TIME=0.000000000000e+00"
6.163836302802e+00 1.000000000000e+00 
6.183839398336e+00 1.000000000000e+00 
6.203842493871e+00 1.000000000000e+00 
6.223845589405e+00 1.000000000000e+00 
6.243848684939e+00 1.000000000000e+00 
6.958375092708e+00 1.000000000000e+00 
6.977711418392e+00 1.000000000000e+00 
6.997047744075e+00 1.000000000000e+00 
7.016384069758e+00 1.000000000000e+00 
7.035720395441e+00 1.000000000000e+00 
7.752913882615e+00 1.000000000000e+00 
7.771583438447e+00 1.000000000000e+00 
7.790252994279e+00 1.000000000000e+00 
7.808922550111e+00 1.000000000000e+00 
7.827592105943e+00 1.000000000000e+00 
8.547452672522e+00 1.000000000000e+00 
8.565455458502e+00 1.000000000000e+00 
8.583458244483e+00 1.000000000000e+00 
8.601461030464e+00 1.000000000000e+00 
8.619463816445e+00 1.000000000000e+00 
9.341991462428e+00 1.000000000000e+00 
9.359327478558e+00 1.000000000000e+00 
9.376663494688e+00 1.000000000000e+00 
9.393999510818e+00 1.000000000000e+00 
9.411335526947e+00 1.000000000000e+00 
1.013653025233e+01 1.000000000000e+00 
1.015319949861e+01 1.000000000000e+00 
1.016986874489e+01 1.000000000000e+00 
1.018653799117e+01 1.000000000000e+00 
1.020320723745e+01 1.000000000000e+00 
1.093106904224e+01 1.000000000000e+00 
1.094707151867e+01 1.000000000000e+00 
1.096307399510e+01 1.000000000000e+00 
1.097907647152e+01 1.000000000000e+00 
1.099507894795e+01 1.000000000000e+00 
1.172560783215e+01 1.000000000000e+00 
1.174094353872e+01 1.000000000000e+00 
1.175627924530e+01 1.000000000000e+00 
1.177161495188e+01 1.000000000000e+00 
1.178695065845e+01 1.000000000000e+00 
1.252014662205e+01 1.000000000000e+00 
1.253481555878e+01 1.000000000000e+00 
1.254948449550e+01 1.000000000000e+00 
1.256415343223e+01 1.000000000000e+00 
1.257882236895e+01 1.000000000000e+00 
1.331468541196e+01 1.000000000000e+00 
1.332868757883e+01 1.000000000000e+00 
1.334268974571e+01 1.000000000000e+00 
1.335669191258e+01 1.000000000000e+00 
1.337069407945e+01 1.000000000000e+00 
1.410922420186e+01 1.000000000000e+00 
1.412255959888e+01 1.000000000000e+00 
1.413589499591e+01 1.000000000000e+00 
1.414923039293e+01 1.000000000000e+00 
1.416256578995e+01 1.000000000000e+00 
1.490376299177e+01 1.000000000000e+00 
1.491643161894e+01 1.000000000000e+00 
1.492910024611e+01 1.000000000000e+00 
1.494176887328e+01 1.000000000000e+00 
1.495443750045e+01 1.000000000000e+00 
1.569830178167e+01 1.000000000000e+00 
1.571030363899e+01 1.000000000000e+00 
1.572230549631e+01 1.000000000000e+00 
1.573430735363e+01 1.000000000000e+00 
1.574630921095e+01 1.000000000000e+00 
1.649284057157e+01 1.000000000000e+00 
1.650417565904e+01 1.000000000000e+00 
1.651551074651e+01 1.000000000000e+00 
1.652684583398e+01 1.000000000000e+00 
1.653818092145e+01 1.000000000000e+00 
1.728737936148e+01 1.000000000000e+00 
1.729804767910e+01 1.000000000000e+00 
1.730871599672e+01 1.000000000000e+00 
1.731938431433e+01 1.000000000000e+00 
1.733005263195e+01 1.000000000000e+00 
1.808191815138e+01 1.000000000000e+00 
1.809191969915e+01 1.000000000000e+00 
1.810192124692e+01 1.000000000000e+00 
1.811192279469e+01 1.000000000000e+00 
1.812192434245e+01 1.000000000000e+00 
1.887645694129e+01 1.000000000000e+00 
1.888579171921e+01 1.000000000000e+00 
1.889512649712e+01 1.000000000000e+00 
1.890446127504e+01 1.000000000000e+00 
1.891379605296e+01 1.000000000000e+00 
1.967099573120e+01 1.000000000000e+00 
1.967966373926e+01 1.000000000000e+00 
1.968833174733e+01 1.000000000000e+00 
1.969699975539e+01 1.000000000000e+00 
1.970566776346e+01 1.000000000000e+00 
2.046553452111e+01 1.000000000000e+00 
2.047353575932e+01 1.000000000000e+00 
2.048153699753e+01 1.000000000000e+00 
2.048953823575e+01 1.000000000000e+00 
2.049753947396e+01 1.000000000000e+00 
2.126007331101e+01 1.000000000000e+00 
2.126740777938e+01 1.000000000000e+00 
2.127474224774e+01 1.000000000000e+00 
2.128207671610e+01 1.000000000000e+00 
2.128941118446e+01 1.000000000000e+00 
2.205461210092e+01 1.000000000000e+00 
2.206127979943e+01 1.000000000000e+00 
2.206794749795e+01 1.000000000000e+00 
2.207461519646e+01 1.000000000000e+00 
2.208128289497e+01 1.000000000000e+00 
2.284915089083e+01 1.000000000000e+00 
2.285515181949e+01 1.000000000000e+00 
2.286115274815e+01 1.000000000000e+00 
2.286715367681e+01 1.000000000000e+00 
2.287315460547e+01 1.000000000000e+00 
2.364368968074e+01 1.000000000000e+00 
2.364902383955e+01 1.000000000000e+00 
2.365435799836e+01 1.000000000000e+00 
2.365969215717e+01 1.000000000000e+00 
2.366502631597e+01 1.000000000000e+00 
2.443822847065e+01 1.000000000000e+00 
2.444289585960e+01 1.000000000000e+00 
2.444756324856e+01 1.000000000000e+00 
2.445223063752e+01 1.000000000000e+00 
2.445689802648e+01 1.000000000000e+00 
2.523276726055e+01 1.000000000000e+00 
2.523676787966e+01 1.000000000000e+00 
2.524076849877e+01 1.000000000000e+00 
2.524476911787e+01 1.000000000000e+00 
2.524876973698e+01 1.000000000000e+00 
2.602730605046e+01 1.000000000000e+00 
2.603063989972e+01 1.000000000000e+00 
2.603397374897e+01 1.000000000000e+00 
2.603730759823e+01 1.000000000000e+00 
2.604064144748e+01 1.000000000000e+00 
2.682184484037e+01 1.000000000000e+00 
2.682451191977e+01 1.000000000000e+00 
2.682717899918e+01 1.000000000000e+00 
2.682984607858e+01 1.000000000000e+00 
2.683251315799e+01 1.000000000000e+00 
2.761638363028e+01 1.000000000000e+00 
2.761838393983e+01 1.000000000000e+00 
2.762038424938e+01 1.000000000000e+00 
2.762238455894e+01 1.000000000000e+00 
2.762438486849e+01 1.000000000000e+00 
2.841092242018e+01 1.000000000000e+00 
2.841225595989e+01 1.000000000000e+00 
2.841358949959e+01 1.000000000000e+00 
2.841492303929e+01 1.000000000000e+00 
2.841625657899e+01 1.000000000000e+00 
2.920546121009e+01 1.000000000000e+00 
2.920612797994e+01 1.000000000000e+00 
2.920679474979e+01 1.000000000000e+00 
2.920746151965e+01 1.000000000000e+00 
2.920812828950e+01 1.000000000000e+00 
3.000000000000e+01 1.000000000000e+00 
3.000000000000e+01 1.000000000000e+00 
3.000000000000e+01 1.000000000000e+00 
3.000000000000e+01 1.000000000000e+00 
3.000000000000e+01 1.000000000000e+00 
3.002500000000e+01 9.876207709446e-01 
3.002500000000e+01 9.876207709446e-01 
3.002500000000e+01 9.876207709446e-01 
3.002500000000e+01 9.876207709446e-01 
3.002500000000e+01 9.876207709446e-01 
3.005000000000e+01 9.697756439369e-01 
3.005000000000e+01 9.697756439369e-01 
3.005000000000e+01 9.697756439369e-01 
3.005000000000e+01 9.697756439369e-01 
3.005000000000e+01 9.697756439369e-01 
3.007500000000e+01 9.507134089444e-01 
3.007500000000e+01 9.507134089444e-01 
3.007500000000e+01 9.507134089444e-01 
3.007500000000e+01 9.507134089444e-01 
3.007500000000e+01 9.507134089444e-01 
3.010000000000e+01 9.315621650298e-01 
3.010000000000e+01 9.315621650298e-01 
3.010000000000e+01 9.315621650298e-01 
3.010000000000e+01 9.315621650298e-01 
3.010000000000e+01 9.315621650298e-01 
3.012500000000e+01 9.128758324042e-01 
3.012500000000e+01 9.128758324042e-01 
3.012500000000e+01 9.128758324042e-01 
3.012500000000e+01 9.128758324042e-01 
3.012500000000e+01 9.128758324042e-01 
3.015000000000e+01 8.949248043380e-01 
3.015000000000e+01 8.949248043380e-01 
3.015000000000e+01 8.949248043380e-01 
3.015000000000e+01 8.949248043380e-01 
3.015000000000e+01 8.949248043380e-01 
3.017500000000e+01 8.778290027968e-01 
3.017500000000e+01 8.778290027968e-01 
3.017500000000e+01 8.778290027968e-01 
3.017500000000e+01 8.778290027968e-01 
3.017500000000e+01 8.778290027968e-01 
3.020000000000e+01 8.616255702900e-01 
3.020000000000e+01 8.616255702900e-01 
3.020000000000e+01 8.616255702900e-01 
3.020000000000e+01 8.616255702900e-01 
3.020000000000e+01 8.616255702900e-01 
3.022500000000e+01 8.463059583920e-01 
3.022500000000e+01 8.463059583920e-01 
3.022500000000e+01 8.463059583920e-01 
3.022500000000e+01 8.463059583920e-01 
3.022500000000e+01 8.463059583920e-01 
3.025000000000e+01 8.318370344398e-01 
3.025000000000e+01 8.318370344398e-01 
3.025000000000e+01 8.318370344398e-01 
3.025000000000e+01 8.318370344398e-01 
3.025000000000e+01 8.318370344398e-01 
3.027500000000e+01 8.181733156316e-01 
3.027500000000e+01 8.181733156316e-01 
3.027500000000e+01 8.181733156316e-01 
3.027500000000e+01 8.181733156316e-01 
3.027500000000e+01 8.181733156316e-01 
3.030000000000e+01 8.052640970350e-01 
3.030000000000e+01 8.052640970350e-01 
3.030000000000e+01 8.052640970350e-01 
3.030000000000e+01 8.052640970350e-01 
3.030000000000e+01 8.052640970350e-01 
3.032500000000e+01 7.930575753856e-01 
3.032500000000e+01 7.930575753856e-01 
3.032500000000e+01 7.930575753856e-01 
3.032500000000e+01 7.930575753856e-01 
3.032500000000e+01 7.930575753856e-01 
3.035000000000e+01 7.815031815402e-01 
3.035000000000e+01 7.815031815402e-01 
3.035000000000e+01 7.815031815402e-01 
3.035000000000e+01 7.815031815402e-01 
3.035000000000e+01 7.815031815402e-01 
3.037500000000e+01 7.705528376764e-01 
3.037500000000e+01 7.705528376764e-01 
3.037500000000e+01 7.705528376764e-01 
3.037500000000e+01 7.705528376764e-01 
3.037500000000e+01 7.705528376764e-01 
3.040000000000e+01 7.601615689674e-01 
3.040000000000e+01 7.601615689674e-01 
3.040000000000e+01 7.601615689674e-01 
3.040000000000e+01 7.601615689674e-01 
3.040000000000e+01 7.601615689674e-01 
3.042500000000e+01 7.502877306002e-01 
3.042500000000e+01 7.502877306002e-01 
3.042500000000e+01 7.502877306002e-01 
3.042500000000e+01 7.502877306002e-01 
3.042500000000e+01 7.502877306002e-01 
3.045000000000e+01 7.408930096824e-01 
3.045000000000e+01 7.408930096824e-01 
3.045000000000e+01 7.408930096824e-01 
3.045000000000e+01 7.408930096824e-01 
3.045000000000e+01 7.408930096824e-01 
3.047500000000e+01 7.319422999608e-01 
3.047500000000e+01 7.319422999608e-01 
3.047500000000e+01 7.319422999608e-01 
3.047500000000e+01 7.319422999608e-01 
3.047500000000e+01 7.319422999608e-01 
3.050000000000e+01 7.234035093991e-01 
3.050000000000e+01 7.234035093991e-01 
3.050000000000e+01 7.234035093991e-01 
3.050000000000e+01 7.234035093991e-01 
3.050000000000e+01 7.234035093991e-01 
3.052500000000e+01 7.152473371957e-01 
3.052500000000e+01 7.152473371957e-01 
3.052500000000e+01 7.152473371957e-01 
3.052500000000e+01 7.152473371957e-01 
3.052500000000e+01 7.152473371957e-01 
3.055000000000e+01 7.074470422112e-01 
3.055000000000e+01 7.074470422112e-01 
3.055000000000e+01 7.074470422112e-01 
3.055000000000e+01 7.074470422112e-01 
3.055000000000e+01 7.074470422112e-01 
3.057500000000e+01 6.999782156504e-01 
3.057500000000e+01 6.999782156504e-01 
3.057500000000e+01 6.999782156504e-01 
3.057500000000e+01 6.999782156504e-01 
3.057500000000e+01 6.999782156504e-01 
3.060000000000e+01 6.928185651596e-01 
3.060000000000e+01 6.928185651596e-01 
3.060000000000e+01 6.928185651596e-01 
3.060000000000e+01 6.928185651596e-01 
3.060000000000e+01 6.928185651596e-01 
3.062500000000e+01 6.859477139679e-01 
3.062500000000e+01 6.859477139679e-01 
3.062500000000e+01 6.859477139679e-01 
3.062500000000e+01 6.859477139679e-01 
3.062500000000e+01 6.859477139679e-01 
3.065000000000e+01 6.793470165436e-01 
3.065000000000e+01 6.793470165436e-01 
3.065000000000e+01 6.793470165436e-01 
3.065000000000e+01 6.793470165436e-01 
3.065000000000e+01 6.793470165436e-01 
3.067500000000e+01 6.729993909360e-01 
3.067500000000e+01 6.729993909360e-01 
3.067500000000e+01 6.729993909360e-01 
3.067500000000e+01 6.729993909360e-01 
3.067500000000e+01 6.729993909360e-01 
3.070000000000e+01 6.668891672206e-01 
3.070000000000e+01 6.668891672206e-01 
3.070000000000e+01 6.668891672206e-01 
3.070000000000e+01 6.668891672206e-01 
3.070000000000e+01 6.668891672206e-01 
3.072500000000e+01 6.610019510587e-01 
3.072500000000e+01 6.610019510587e-01 
3.072500000000e+01 6.610019510587e-01 
3.072500000000e+01 6.610019510587e-01 
3.072500000000e+01 6.610019510587e-01 
3.075000000000e+01 6.553245011865e-01 
3.075000000000e+01 6.553245011865e-01 
3.075000000000e+01 6.553245011865e-01 
3.075000000000e+01 6.553245011865e-01 
3.075000000000e+01 6.553245011865e-01 
3.077500000000e+01 6.498446195878e-01 
3.077500000000e+01 6.498446195878e-01 
3.077500000000e+01 6.498446195878e-01 
3.077500000000e+01 6.498446195878e-01 
3.077500000000e+01 6.498446195878e-01 
3.080000000000e+01 6.445510531188e-01 
3.080000000000e+01 6.445510531188e-01 
3.080000000000e+01 6.445510531188e-01 
3.080000000000e+01 6.445510531188e-01 
3.080000000000e+01 6.445510531188e-01 
3.082500000000e+01 6.394334054150e-01 
3.082500000000e+01 6.394334054150e-01 
3.082500000000e+01 6.394334054150e-01 
3.082500000000e+01 6.394334054150e-01 
3.082500000000e+01 6.394334054150e-01 
3.085000000000e+01 6.344820579917e-01 
3.085000000000e+01 6.344820579917e-01 
3.085000000000e+01 6.344820579917e-01 
3.085000000000e+01 6.344820579917e-01 
3.085000000000e+01 6.344820579917e-01 
3.087500000000e+01 6.296880995462e-01 
3.087500000000e+01 6.296880995462e-01 
3.087500000000e+01 6.296880995462e-01 
3.087500000000e+01 6.296880995462e-01 
3.087500000000e+01 6.296880995462e-01 
3.090000000000e+01 6.250432625624e-01 
3.090000000000e+01 6.250432625624e-01 
3.090000000000e+01 6.250432625624e-01 
3.090000000000e+01 6.250432625624e-01 
3.090000000000e+01 6.250432625624e-01 
3.092500000000e+01 6.205398664126e-01 
3.092500000000e+01 6.205398664126e-01 
3.092500000000e+01 6.205398664126e-01 
3.092500000000e+01 6.205398664126e-01 
3.092500000000e+01 6.205398664126e-01 
3.095000000000e+01 6.161707662369e-01 
3.095000000000e+01 6.161707662369e-01 
3.095000000000e+01 6.161707662369e-01 
3.095000000000e+01 6.161707662369e-01 
3.095000000000e+01 6.161707662369e-01 
3.097500000000e+01 6.119293069613e-01 
3.097500000000e+01 6.119293069613e-01 
3.097500000000e+01 6.119293069613e-01 
3.097500000000e+01 6.119293069613e-01 
3.097500000000e+01 6.119293069613e-01 
3.100000000000e+01 6.078092818871e-01 
3.100000000000e+01 6.078092818871e-01 
3.100000000000e+01 6.078092818871e-01 
3.100000000000e+01 6.078092818871e-01 
3.100000000000e+01 6.078092818871e-01 
3.102500000000e+01 6.038048953494e-01 
3.102500000000e+01 6.038048953494e-01 
3.102500000000e+01 6.038048953494e-01 
3.102500000000e+01 6.038048953494e-01 
3.102500000000e+01 6.038048953494e-01 
3.105000000000e+01 5.999107290013e-01 
3.105000000000e+01 5.999107290013e-01 
3.105000000000e+01 5.999107290013e-01 
3.105000000000e+01 5.999107290013e-01 
3.105000000000e+01 5.999107290013e-01 
3.107500000000e+01 5.961217113309e-01 
3.107500000000e+01 5.961217113309e-01 
3.107500000000e+01 5.961217113309e-01 
3.107500000000e+01 5.961217113309e-01 
3.107500000000e+01 5.961217113309e-01 
3.110000000000e+01 5.924330900627e-01 
3.110000000000e+01 5.924330900627e-01 
3.110000000000e+01 5.924330900627e-01 
3.110000000000e+01 5.924330900627e-01 
3.110000000000e+01 5.924330900627e-01 
3.112500000000e+01 5.888404071392e-01 
3.112500000000e+01 5.888404071392e-01 
3.112500000000e+01 5.888404071392e-01 
3.112500000000e+01 5.888404071392e-01 
3.112500000000e+01 5.888404071392e-01 
3.115000000000e+01 5.853394760078e-01 
3.115000000000e+01 5.853394760078e-01 
3.115000000000e+01 5.853394760078e-01 
3.115000000000e+01 5.853394760078e-01 
3.115000000000e+01 5.853394760078e-01 
3.117500000000e+01 5.819263609758e-01 
3.117500000000e+01 5.819263609758e-01 
3.117500000000e+01 5.819263609758e-01 
3.117500000000e+01 5.819263609758e-01 
3.117500000000e+01 5.819263609758e-01 
3.120000000000e+01 5.785973584173e-01 
3.120000000000e+01 5.785973584173e-01 
3.120000000000e+01 5.785973584173e-01 
3.120000000000e+01 5.785973584173e-01 
3.120000000000e+01 5.785973584173e-01 
3.122500000000e+01 5.753489796460e-01 
3.122500000000e+01 5.753489796460e-01 
3.122500000000e+01 5.753489796460e-01 
3.122500000000e+01 5.753489796460e-01 
3.122500000000e+01 5.753489796460e-01 
3.125000000000e+01 5.721779352840e-01 
3.125000000000e+01 5.721779352840e-01 
3.125000000000e+01 5.721779352840e-01 
3.125000000000e+01 5.721779352840e-01 
3.125000000000e+01 5.721779352840e-01 
3.127500000000e+01 5.690811209785e-01 
3.127500000000e+01 5.690811209785e-01 
3.127500000000e+01 5.690811209785e-01 
3.127500000000e+01 5.690811209785e-01 
3.127500000000e+01 5.690811209785e-01 
3.130000000000e+01 5.660556043336e-01 
3.130000000000e+01 5.660556043336e-01 
3.130000000000e+01 5.660556043336e-01 
3.130000000000e+01 5.660556043336e-01 
3.130000000000e+01 5.660556043336e-01 
3.132500000000e+01 5.630986129391e-01 
3.132500000000e+01 5.630986129391e-01 
3.132500000000e+01 5.630986129391e-01 
3.132500000000e+01 5.630986129391e-01 
3.132500000000e+01 5.630986129391e-01 
3.135000000000e+01 5.602075233904e-01 
3.135000000000e+01 5.602075233904e-01 
3.135000000000e+01 5.602075233904e-01 
3.135000000000e+01 5.602075233904e-01 
3.135000000000e+01 5.602075233904e-01 
3.137500000000e+01 5.573798512060e-01 
3.137500000000e+01 5.573798512060e-01 
3.137500000000e+01 5.573798512060e-01 
3.137500000000e+01 5.573798512060e-01 
3.137500000000e+01 5.573798512060e-01 
3.140000000000e+01 5.546132415581e-01 
3.140000000000e+01 5.546132415581e-01 
3.140000000000e+01 5.546132415581e-01 
3.140000000000e+01 5.546132415581e-01 
3.140000000000e+01 5.546132415581e-01 
3.142500000000e+01 5.519054607414e-01 
3.142500000000e+01 5.519054607414e-01 
3.142500000000e+01 5.519054607414e-01 
3.142500000000e+01 5.519054607414e-01 
3.142500000000e+01 5.519054607414e-01 
3.145000000000e+01 5.492543883110e-01 
3.145000000000e+01 5.492543883110e-01 
3.145000000000e+01 5.492543883110e-01 
3.145000000000e+01 5.492543883110e-01 
3.145000000000e+01 5.492543883110e-01 
3.147500000000e+01 5.466580098318e-01 
3.147500000000e+01 5.466580098318e-01 
3.147500000000e+01 5.466580098318e-01 
3.147500000000e+01 5.466580098318e-01 
3.147500000000e+01 5.466580098318e-01 
3.150000000000e+01 5.441144101810e-01 
3.150000000000e+01 5.441144101810e-01 
3.150000000000e+01 5.441144101810e-01 
3.150000000000e+01 5.441144101810e-01 
3.150000000000e+01 5.441144101810e-01 
3.152500000000e+01 5.416217673588e-01 
3.152500000000e+01 5.416217673588e-01 
3.152500000000e+01 5.416217673588e-01 
3.152500000000e+01 5.416217673588e-01 
3.152500000000e+01 5.416217673588e-01 
3.155000000000e+01 5.391783467591e-01 
3.155000000000e+01 5.391783467591e-01 
3.155000000000e+01 5.391783467591e-01 
3.155000000000e+01 5.391783467591e-01 
3.155000000000e+01 5.391783467591e-01 
3.157500000000e+01 5.367824958643e-01 
3.157500000000e+01 5.367824958643e-01 
3.157500000000e+01 5.367824958643e-01 
3.157500000000e+01 5.367824958643e-01 
3.157500000000e+01 5.367824958643e-01 
3.160000000000e+01 5.344326393247e-01 
3.160000000000e+01 5.344326393247e-01 
3.160000000000e+01 5.344326393247e-01 
3.160000000000e+01 5.344326393247e-01 
3.160000000000e+01 5.344326393247e-01 
3.162500000000e+01 5.321272743928e-01 
3.162500000000e+01 5.321272743928e-01 
3.162500000000e+01 5.321272743928e-01 
3.162500000000e+01 5.321272743928e-01 
3.162500000000e+01 5.321272743928e-01 
3.165000000000e+01 5.298649666811e-01 
3.165000000000e+01 5.298649666811e-01 
3.165000000000e+01 5.298649666811e-01 
3.165000000000e+01 5.298649666811e-01 
3.165000000000e+01 5.298649666811e-01 
3.167500000000e+01 5.276443462180e-01 
3.167500000000e+01 5.276443462180e-01 
3.167500000000e+01 5.276443462180e-01 
3.167500000000e+01 5.276443462180e-01 
3.167500000000e+01 5.276443462180e-01 
3.170000000000e+01 5.254641037767e-01 
3.170000000000e+01 5.254641037767e-01 
3.170000000000e+01 5.254641037767e-01 
3.170000000000e+01 5.254641037767e-01 
3.170000000000e+01 5.254641037767e-01 
3.172500000000e+01 5.233229874560e-01 
3.172500000000e+01 5.233229874560e-01 
3.172500000000e+01 5.233229874560e-01 
3.172500000000e+01 5.233229874560e-01 
3.172500000000e+01 5.233229874560e-01 
3.175000000000e+01 5.212197994921e-01 
3.175000000000e+01 5.212197994921e-01 
3.175000000000e+01 5.212197994921e-01 
3.175000000000e+01 5.212197994921e-01 
3.175000000000e+01 5.212197994921e-01 
3.177500000000e+01 5.191533932842e-01 
3.177500000000e+01 5.191533932842e-01 
3.177500000000e+01 5.191533932842e-01 
3.177500000000e+01 5.191533932842e-01 
3.177500000000e+01 5.191533932842e-01 
3.180000000000e+01 5.171226706164e-01 
3.180000000000e+01 5.171226706164e-01 
3.180000000000e+01 5.171226706164e-01 
3.180000000000e+01 5.171226706164e-01 
3.180000000000e+01 5.171226706164e-01 
3.182500000000e+01 5.151265790614e-01 
3.182500000000e+01 5.151265790614e-01 
3.182500000000e+01 5.151265790614e-01 
3.182500000000e+01 5.151265790614e-01 
3.182500000000e+01 5.151265790614e-01 
3.185000000000e+01 5.131641095520e-01 
3.185000000000e+01 5.131641095520e-01 
3.185000000000e+01 5.131641095520e-01 
3.185000000000e+01 5.131641095520e-01 
3.185000000000e+01 5.131641095520e-01 
3.187500000000e+01 5.112342941078e-01 
3.187500000000e+01 5.112342941078e-01 
3.187500000000e+01 5.112342941078e-01 
3.187500000000e+01 5.112342941078e-01 
3.187500000000e+01 5.112342941078e-01 
3.190000000000e+01 5.093362037054e-01 
3.190000000000e+01 5.093362037054e-01 
3.190000000000e+01 5.093362037054e-01 
3.190000000000e+01 5.093362037054e-01 
3.190000000000e+01 5.093362037054e-01 
3.192500000000e+01 5.074689462822e-01 
3.192500000000e+01 5.074689462822e-01 
3.192500000000e+01 5.074689462822e-01 
3.192500000000e+01 5.074689462822e-01 
3.192500000000e+01 5.074689462822e-01 
3.195000000000e+01 5.056316648631e-01 
3.195000000000e+01 5.056316648631e-01 
3.195000000000e+01 5.056316648631e-01 
3.195000000000e+01 5.056316648631e-01 
3.195000000000e+01 5.056316648631e-01 
3.197500000000e+01 5.038235358020e-01 
3.197500000000e+01 5.038235358020e-01 
3.197500000000e+01 5.038235358020e-01 
3.197500000000e+01 5.038235358020e-01 
3.197500000000e+01 5.038235358020e-01 
3.200000000000e+01 4.998131140802e-01 
3.200000000000e+01 4.998283193805e-01 
3.200000000000e+01 4.998359120972e-01 
3.200000000000e+01 4.998207200342e-01 
3.200000000000e+01 4.998434981624e-01 
3.383276726056e+01 4.157439676502e-01 
3.383676787967e+01 4.156162061905e-01 
3.384076849877e+01 4.154886147259e-01 
3.384476911788e+01 4.153611928692e-01 
3.384876973699e+01 4.152339402344e-01 
3.566553452112e+01 3.734958762958e-01 
3.567353575933e+01 3.733471865852e-01 
3.568153699755e+01 3.731987728169e-01 
3.568953823576e+01 3.730506341015e-01 
3.569753947398e+01 3.729027695538e-01 
3.749830178168e+01 3.457746539098e-01 
3.751030363900e+01 3.456211023584e-01 
3.752230549632e+01 3.454678746988e-01 
3.753430735364e+01 3.453149697403e-01 
3.754630921096e+01 3.451623862986e-01 
3.933106904224e+01 3.256868427605e-01 
3.934707151867e+01 3.255336478533e-01 
3.936307399510e+01 3.253807997415e-01 
3.937907647152e+01 3.252282970557e-01 
3.939507894795e+01 3.250761384341e-01 
4.116383630280e+01 3.101759472995e-01 
4.118383939834e+01 3.100249681212e-01 
4.120384249387e+01 3.098743464849e-01 
4.122384558941e+01 3.097240809131e-01 
4.124384868494e+01 3.095741699371e-01 
 TITLE = "Profiles along polylines"
 VARIABLES = "DIST" "SATURATION1" 
 ZONE T="TIME=1.797693134862e+308"
6.163836302802e+00 1.000000000000e+00 
6.183839398336e+00 1.000000000000e+00 
6.203842493871e+00 1.000000000000e+00 
6.223845589405e+00 1.000000000000e+00 
6.243848684939e+00 1.000000000000e+00 
6.958375092708e+00 1.000000000000e+00 
6.977711418392e+00 1.000000000000e+00 
6.997047744075e+00 1.000000000000e+00 
7.016384069758e+00 1.000000000000e+00 
7.035720395441e+00 1.000000000000e+00 
7.752913882615e+00 1.000000000000e+00 
7.771583438447e+00 1.000000000000e+00 
7.790252994279e+00 1.000000000000e+00 
7.808922550111e+00 1.000000000000e+00 
7.827592105943e+00 1.000000000000e+00 
8.547452672522e+00 1.000000000000e+00 
8.565455458502e+00 1.000000000000e+00 
8.583458244483e+00 1.000000000000e+00 
8.601461030464e+00 1.000000000000e+00 
8.619463816445e+00 1.000000000000e+00 
9.341991462428e+00 1.000000000000e+00 
9.359327478558e+00 1.000000000000e+00 
9.376663494688e+00 1.000000000000e+00 
9.393999510818e+00 1.000000000000e+00 
9.411335526947e+00 1.000000000000e+00 
1.013653025233e+01 1.000000000000e+00 
1.015319949861e+01 1.000000000000e+00 
1.016986874489e+01 1.000000000000e+00 
1.018653799117e+01 1.000000000000e+00 
1.020320723745e+01 1.000000000000e+00 
1.093106904224e+01 1.000000000000e+00 
1.094707151867e+01 1.000000000000e+00 
1.096307399510e+01 1.000000000000e+00 
1.097907647152e+01 1.000000000000e+00 
1.099507894795e+01 1.000000000000e+00 
1.172560783215e+01 1.000000000000e+00 
1.174094353872e+01 1.000000000000e+00 
1.175627924530e+01 1.000000000000e+00 
1.177161495188e+01 1.000000000000e+00 
1.178695065845e+01 1.000000000000e+00 
1.252014662205e+01 1.000000000000e+00 
1.253481555878e+01 1.000000000000e+00 
1.254948449550e+01 1.000000000000e+00 
1.256415343223e+01 1.000000000000e+00 
1.257882236895e+01 1.000000000000e+00 
1.331468541196e+01 1.000000000000e+00 
1.332868757883e+01 1.000000000000e+00 
1.334268974571e+01 1.000000000000e+00 
1.335669191258e+01 1.000000000000e+00 
1.337069407945e+01 1.000000000000e+00 
1.410922420186e+01 1.000000000000e+00 
1.412255959888e+01 1.000000000000e+00 
1.413589499591e+01 1.000000000000e+00 
1.414923039293e+01 1.000000000000e+00 
1.416256578995e+01 1.000000000000e+00 
1.490376299177e+01 1.000000000000e+00 
1.491643161894e+01 1.000000000000e+00 
1.492910024611e+01 1.000000000000e+00 
1.494176887328e+01 1.000000000000e+00 
1.495443750045e+01 1.000000000000e+00 
1.569830178167e+01 1.000000000000e+00 
1.571030363899e+01 1.000000000000e+00 
1.572230549631e+01 1.000000000000e+00 
1.573430735363e+01 1.000000000000e+00 
1.574630921095e+01 1.000000000000e+00 
1.649284057157e+01 1.000000000000e+00 
1.650417565904e+01 1.000000000000e+00 
1.651551074651e+01 1.000000000000e+00 
1.652684583398e+01 1.000000000000e+00 
1.653818092145e+01 1.000000000000e+00 
1.728737936148e+01 1.000000000000e+00 
1.729804767910e+01 1.000000000000e+00 
1.730871599672e+01 1.000000000000e+00 
1.731938431433e+01 1.000000000000e+00 
1.733005263195e+01 1.000000000000e+00 
1.808191815138e+01 1.000000000000e+00 
1.809191969915e+01 1.000000000000e+00 
1.810192124692e+01 1.000000000000e+00 
1.811192279469e+01 1.000000000000e+00 
1.812192434245e+01 1.000000000000e+00 
1.887645694129e+01 1.000000000000e+00 
1.888579171921e+01 1.000000000000e+00 
1.889512649712e+01 1.000000000000e+00 
1.890446127504e+01 1.000000000000e+00 
1.891379605296e+01 1.000000000000e+00 
1.967099573120e+01 1.000000000000e+00 
1.967966373926e+01 1.000000000000e+00 
1.968833174733e+01 1.000000000000e+00 
1.969699975539e+01 1.000000000000e+00 
1.970566776346e+01 1.000000000000e+00 
2.046553452111e+01 1.000000000000e+00 
2.047353575932e+01 1.000000000000e+00 
2.048153699753e+01 1.000000000000e+00 
2.048953823575e+01 1.000000000000e+00 
2.049753947396e+01 1.000000000000e+00 
2.126007331101e+01 1.000000000000e+00 
2.126740777938e+01 1.000000000000e+00 
2.127474224774e+01 1.000000000000e+00 
2.128207671610e+01 1.000000000000e+00 
2.128941118446e+01 1.000000000000e+00 
2.205461210092e+01 1.000000000000e+00 
2.206127979943e+01 1.000000000000e+00 
2.206794749795e+01 1.000000000000e+00 
2.207461519646e+01 1.000000000000e+00 
2.208128289497e+01 1.000000000000e+00 
2.284915089083e+01 1.000000000000e+00 
2.285515181949e+01 1.000000000000e+00 
2.286115274815e+01 1.000000000000e+00 
2.286715367681e+01 1.000000000000e+00 
2.287315460547e+01 1.000000000000e+00 
2.364368968074e+01 1.000000000000e+00 
2.364902383955e+01 1.000000000000e+00 
2.365435799836e+01 1.000000000000e+00 
2.365969215717e+01 1.000000000000e+00 
2.366502631597e+01 1.000000000000e+00 
2.443822847065e+01 1.000000000000e+00 
2.444289585960e+01 1.000000000000e+00 
2.444756324856e+01 1.000000000000e+00 
2.445223063752e+01 1.000000000000e+00 
2.445689802648e+01 1.000000000000e+00 
2.523276726055e+01 1.000000000000e+00 
2.523676787966e+01 1.000000000000e+00 
2.524076849877e+01 1.000000000000e+00 
2.524476911787e+01 1.000000000000e+00 
2.524876973698e+01 1.000000000000e+00 
2.602730605046e+01 1.000000000000e+00 
2.603063989972e+01 1.000000000000e+00 
2.603397374897e+01 1.000000000000e+00 
2.603730759823e+01 1.000000000000e+00 
2.604064144748e+01 1.000000000000e+00 
2.682184484037e+01 1.000000000000e+00 
2.682451191977e+01 1.000000000000e+00 
2.682717899918e+01 1.000000000000e+00 
2.682984607858e+01 1.000000000000e+00 
2.683251315799e+01 1.000000000000e+00 
2.761638363028e+01 1.000000000000e+00 
2.761838393983e+01 1.000000000000e+00 
2.762038424938e+01 1.000000000000e+00 
2.762238455894e+01 1.000000000000e+00 
2.762438486849e+01 1.000000000000e+00 
2.841092242018e+01 1.000000000000e+00 
2.841225595989e+01 1.000000000000e+00 
2.841358949959e+01 1.000000000000e+00 
2.841492303929e+01 1.000000000000e+00 
2.841625657899e+01 1.000000000000e+00 
2.920546121009e+01 1.000000000000e+00 
2.920612797994e+01 1.000000000000e+00 
2.920679474979e+01 1.000000000000e+00 
2.920746151965e+01 1.000000000000e+00 
2.920812828950e+01 1.000000000000e+00 
3.000000000000e+01 1.000000000000e+00 
3.000000000000e+01 1.000000000000e+00 
3.000000000000e+01 1.000000000000e+00 
3.000000000000e+01 1.000000000000e+00 
3.000000000000e+01 1.000000000000e+00 
3.002500000000e+01 1.000000000000e+00 
3.002500000000e+01 1.000000000000e+00 
3.002500000000e+01 1.000000000000e+00 
3.002500000000e+01 1.000000000000e+00 
3.002500000000e+01 1.000000000000e+00 
3.005000000000e+01 1.000000000000e+00 
3.005000000000e+01 1.000000000000e+00 
3.005000000000e+01 1.000000000000e+00 
3.005000000000e+01 1.000000000000e+00 
3.005000000000e+01 1.000000000000e+00 
3.007500000000e+01 1.000000000000e+00 
3.007500000000e+01 1.000000000000e+00 
3.007500000000e+01 1.000000000000e+00 
3.007500000000e+01 1.000000000000e+00 
3.007500000000e+01 1.000000000000e+00 
3.010000000000e+01 1.000000000000e+00 
3.010000000000e+01 1.000000000000e+00 
3.010000000000e+01 1.000000000000e+00 
3.010000000000e+01 1.000000000000e+00 
3.010000000000e+01 1.000000000000e+00 
3.012500000000e+01 1.000000000000e+00 
3.012500000000e+01 1.000000000000e+00 
3.012500000000e+01 1.000000000000e+00 
3.012500000000e+01 1.000000000000e+00 
3.012500000000e+01 1.000000000000e+00 
3.015000000000e+01 1.000000000000e+00 
3.015000000000e+01 1.000000000000e+00 
3.015000000000e+01 1.000000000000e+00 