 TITLE = "Profiles along polylines"
 VARIABLES = "DIST" "SATURATION1" 
 ZONE T="TIME=0.000000000000e+00"
4.901677189013e-01 1.000000000000e+00 
4.951694303187e-01 1.000000000000e+00 
5.001711417360e-01 1.000000000000e+00 
5.051728531534e-01 1.000000000000e+00 
5.101745645707e-01 1.000000000000e+00 
1.473828794938e+00 1.000000000000e+00 
1.478663782641e+00 1.000000000000e+00 
1.483498770345e+00 1.000000000000e+00 
1.488333758048e+00 1.000000000000e+00 
1.493168745751e+00 1.000000000000e+00 
2.457489870974e+00 1.000000000000e+00 
2.462158134963e+00 1.000000000000e+00 
2.466826398953e+00 1.000000000000e+00 
2.471494662942e+00 1.000000000000e+00 
2.476162926932e+00 1.000000000000e+00 
3.441150947011e+00 1.000000000000e+00 
3.445652487286e+00 1.000000000000e+00 
3.450154027562e+00 1.000000000000e+00 
3.454655567838e+00 1.000000000000e+00 
3.459157108113e+00 1.000000000000e+00 
4.424812023048e+00 1.000000000000e+00 
4.429146839609e+00 1.000000000000e+00 
4.433481656171e+00 1.000000000000e+00 
4.437816472733e+00 1.000000000000e+00 
4.442151289294e+00 1.000000000000e+00 
5.408473099083e+00 1.000000000000e+00 
5.412641191931e+00 1.000000000000e+00 
5.416809284779e+00 1.000000000000e+00 
5.420977377627e+00 1.000000000000e+00 
5.425145470475e+00 1.000000000000e+00 
6.392134175119e+00 1.000000000000e+00 
6.396135544253e+00 1.000000000000e+00 
6.400136913387e+00 1.000000000000e+00 
6.404138282521e+00 1.000000000000e+00 
6.408139651655e+00 1.000000000000e+00 
7.375795251155e+00 1.000000000000e+00 
7.379629896575e+00 1.000000000000e+00 
7.383464541995e+00 1.000000000000e+00 
7.387299187415e+00 1.000000000000e+00 
7.391133832835e+00 1.000000000000e+00 
8.359456327191e+00 1.000000000000e+00 
8.363124248897e+00 1.000000000000e+00 
8.366792170603e+00 1.000000000000e+00 
8.370460092309e+00 1.000000000000e+00 
8.374128014015e+00 1.000000000000e+00 
9.343117403224e+00 1.000000000000e+00 
9.346618601216e+00 1.000000000000e+00 
9.350119799208e+00 1.000000000000e+00 
9.353620997200e+00 1.000000000000e+00 
9.357122195192e+00 1.000000000000e+00 
1.032677847926e+01 1.000000000000e+00 
1.033011295354e+01 1.000000000000e+00 
1.033344742781e+01 1.000000000000e+00 
1.033678190209e+01 1.000000000000e+00 
1.034011637637e+01 1.000000000000e+00 
1.131043955529e+01 1.000000000000e+00 
1.131360730585e+01 1.000000000000e+00 
1.131677505642e+01 1.000000000000e+00 
1.131994280698e+01 1.000000000000e+00 
1.132311055755e+01 1.000000000000e+00 
1.229410063132e+01 1.000000000000e+00 
1.229710165817e+01 1.000000000000e+00 
1.230010268502e+01 1.000000000000e+00 
1.230310371187e+01 1.000000000000e+00 
1.230610473872e+01 1.000000000000e+00 
1.327776170736e+01 1.000000000000e+00 
1.328059601049e+01 1.000000000000e+00 
1.328343031363e+01 1.000000000000e+00 
1.328626461677e+01 1.000000000000e+00 
1.328909891990e+01 1.000000000000e+00 
1.426142278339e+01 1.000000000000e+00 
1.426409036281e+01 1.000000000000e+00 
1.426675794223e+01 1.000000000000e+00 
1.426942552166e+01 1.000000000000e+00 
1.427209310108e+01 1.000000000000e+00 
1.524508385942e+01 1.000000000000e+00 
1.524758471513e+01 1.000000000000e+00 
1.525008557084e+01 1.000000000000e+00 
1.525258642655e+01 1.000000000000e+00 
1.525508728226e+01 1.000000000000e+00 
1.622874493546e+01 1.000000000000e+00 
1.623107906745e+01 1.000000000000e+00 
1.623341319945e+01 1.000000000000e+00 
1.623574733144e+01 1.000000000000e+00 
1.623808146344e+01 1.000000000000e+00 
1.721240601150e+01 1.000000000000e+00 
1.721457341978e+01 1.000000000000e+00 
1.721674082806e+01 1.000000000000e+00 
1.721890823634e+01 1.000000000000e+00 
1.722107564462e+01 1.000000000000e+00 
1.819606708754e+01 1.000000000000e+00 
1.819806777210e+01 1.000000000000e+00 
1.820006845667e+01 1.000000000000e+00 
1.820206914124e+01 1.000000000000e+00 
1.820406982580e+01 1.000000000000e+00 
1.917972816358e+01 1.000000000000e+00 
1.918156212443e+01 1.000000000000e+00 
1.918339608528e+01 1.000000000000e+00 
1.918523004613e+01 1.000000000000e+00 
1.918706400699e+01 1.000000000000e+00 
2.016338923961e+01 1.000000000000e+00 
2.016505647675e+01 1.000000000000e+00 
2.016672371389e+01 1.000000000000e+00 
2.016839095103e+01 1.000000000000e+00 
2.017005818817e+01 1.000000000000e+00 
2.114705031565e+01 1.000000000000e+00 
2.114855082908e+01 1.000000000000e+00 
2.115005134250e+01 1.000000000000e+00 
2.115155185593e+01 1.000000000000e+00 
2.115305236935e+01 1.000000000000e+00 
2.213071139169e+01 1.000000000000e+00 
2.213204518140e+01 1.000000000000e+00 
2.213337897111e+01 1.000000000000e+00 
2.213471276083e+01 1.000000000000e+00 
2.213604655054e+01 1.000000000000e+00 
2.311437246773e+01 1.000000000000e+00 
2.311553953373e+01 1.000000000000e+00 
2.311670659972e+01 1.000000000000e+00 
2.311787366572e+01 1.000000000000e+00 
2.311904073172e+01 1.000000000000e+00 
2.409803354377e+01 1.000000000000e+00 
2.409903388605e+01 1.000000000000e+00 
2.410003422834e+01 1.000000000000e+00 
2.410103457062e+01 1.000000000000e+00 
2.410203491290e+01 1.000000000000e+00 
2.508169461981e+01 1.000000000000e+00 
2.508252823838e+01 1.000000000000e+00 
2.508336185695e+01 1.000000000000e+00 
2.508419547552e+01 1.000000000000e+00 
2.508502909409e+01 1.000000000000e+00 
2.606535569585e+01 1.000000000000e+00 
2.606602259070e+01 1.000000000000e+00 
2.606668948556e+01 1.000000000000e+00 
2.606735638041e+01 1.000000000000e+00 
2.606802327527e+01 1.000000000000e+00 
2.704901677188e+01 1.000000000000e+00 
2.704951694303e+01 1.000000000000e+00 
2.705001711417e+01 1.000000000000e+00 
2.705051728531e+01 1.000000000000e+00 
2.705101745645e+01 1.000000000000e+00 
2.803267784792e+01 1.000000000000e+00 
2.803301129535e+01 1.000000000000e+00 
2.803334474278e+01 1.000000000000e+00 
2.803367819021e+01 1.000000000000e+00 
2.803401163763e+01 1.000000000000e+00 
2.901633892396e+01 1.000000000000e+00 
2.901650564768e+01 1.000000000000e+00 
2.901667237139e+01 1.000000000000e+00 
2.901683909510e+01 1.000000000000e+00 
2.901700581882e+01 1.000000000000e+00 
3.000000000000e+01 1.000000000000e+00 
3.000000000000e+01 1.000000000000e+00 
3.000000000000e+01 1.000000000000e+00 
3.000000000000e+01 1.000000000000e+00 
3.000000000000e+01 1.000000000000e+00 
3.002500000000e+01 9.876207709446e-01 
3.002500000000e+01 9.876207709446e-01 
3.002500000000e+01 9.876207709446e-01 
3.002500000000e+01 9.876207709446e-01 
3.002500000000e+01 9.876207709446e-01 
3.005000000000e+01 9.697756439369e-01 
3.005000000000e+01 9.697756439369e-01 
3.005000000000e+01 9.697756439369e-01 
3.005000000000e+01 9.697756439369e-01 
3.005000000000e+01 9.697756439369e-01 
3.007500000000e+01 9.507134089444e-01 
3.007500000000e+01 9.507134089444e-01 
3.007500000000e+01 9.507134089444e-01 
3.007500000000e+01 9.507134089444e-01 
3.007500000000e+01 9.507134089444e-01 
3.010000000000e+01 9.315621650298e-01 
3.010000000000e+01 9.315621650298e-01 
3.010000000000e+01 9.315621650298e-01 
3.010000000000e+01 9.315621650298e-01 
3.010000000000e+01 9.315621650298e-01 
3.012500000000e+01 9.128758324042e-01 
3.012500000000e+01 9.128758324042e-01 
3.012500000000e+01 9.128758324042e-01 
3.012500000000e+01 9.128758324042e-01 
3.012500000000e+01 9.128758324042e-01 
3.015000000000e+01 8.949248043380e-01 
3.015000000000e+01 8.949248043380e-01 
3.015000000000e+01 8.949248043380e-01 
3.015000000000e+01 8.949248043380e-01 
3.015000000000e+01 8.949248043380e-01 
3.017500000000e+01 8.778290027968e-01 
3.017500000000e+01 8.778290027968e-01 
3.017500000000e+01 8.778290027968e-01 
3.017500000000e+01 8.778290027968e-01 
3.017500000000e+01 8.778290027968e-01 
3.020000000000e+01 8.616255702900e-01 
3.020000000000e+01 8.616255702900e-01 
3.020000000000e+01 8.616255702900e-01 
3.020000000000e+01 8.616255702900e-01 
3.020000000000e+01 8.616255702900e-01 
3.022500000000e+01 8.463059583920e-01 
3.022500000000e+01 8.463059583920e-01 
3.022500000000e+01 8.463059583920e-01 
3.022500000000e+01 8.463059583920e-01 
3.022500000000e+01 8.463059583920e-01 
3.025000000000e+01 8.318370344398e-01 
3.025000000000e+01 8.318370344398e-01 
3.025000000000e+01 8.318370344398e-01 
3.025000000000e+01 8.318370344398e-01 
3.025000000000e+01 8.318370344398e-01 
3.027500000000e+01 8.181733156316e-01 
3.027500000000e+01 8.181733156316e-01 
3.027500000000e+01 8.181733156316e-01 
3.027500000000e+01 8.181733156316e-01 
3.027500000000e+01 8.181733156316e-01 
3.030000000000e+01 8.052640970350e-01 
3.030000000000e+01 8.052640970350e-01 
3.030000000000e+01 8.052640970350e-01 
3.030000000000e+01 8.052640970350e-01 
3.030000000000e+01 8.052640970350e-01 
3.032500000000e+01 7.930575753856e-01 
3.032500000000e+01 7.930575753856e-01 
3.032500000000e+01 7.930575753856e-01 
3.032500000000e+01 7.930575753856e-01 
3.032500000000e+01 7.930575753856e-01 
3.035000000000e+01 7.815031815402e-01 
3.035000000000e+01 7.815031815402e-01 
3.035000000000e+01 7.815031815402e-01 
3.035000000000e+01 7.815031815402e-01 
3.035000000000e+01 7.815031815402e-01 
3.037500000000e+01 7.705528376764e-01 
3.037500000000e+01 7.705528376764e-01 
3.037500000000e+01 7.705528376764e-01 
3.037500000000e+01 7.705528376764e-01 
3.037500000000e+01 7.705528376764e-01 
3.040000000000e+01 7.601615689674e-01 
3.040000000000e+01 7.601615689674e-01 
3.040000000000e+01 7.601615689674e-01 
3.040000000000e+01 7.601615689674e-01 
3.040000000000e+01 7.601615689674e-01 
3.042500000000e+01 7.502877306002e-01 
3.042500000000e+01 7.502877306002e-01 
3.042500000000e+01 7.502877306002e-01 
3.042500000000e+01 7.502877306002e-01 
3.042500000000e+01 7.502877306002e-01 
3.045000000000e+01 7.408930096824e-01 
3.045000000000e+01 7.408930096824e-01 
3.045000000000e+01 7.408930096824e-01 
3.045000000000e+01 7.408930096824e-01 
3.045000000000e+01 7.408930096824e-01 
3.047500000000e+01 7.319422999608e-01 
3.047500000000e+01 7.319422999608e-01 
3.047500000000e+01 7.319422999608e-01 
3.047500000000e+01 7.319422999608e-01 
3.047500000000e+01 7.319422999608e-01 
3.050000000000e+01 7.234035093991e-01 
3.050000000000e+01 7.234035093991e-01 
3.050000000000e+01 7.234035093991e-01 
3.050000000000e+01 7.234035093991e-01 
3.050000000000e+01 7.234035093991e-01 
3.052500000000e+01 7.152473371957e-01 
3.052500000000e+01 7.152473371957e-01 
3.052500000000e+01 7.152473371957e-01 
3.052500000000e+01 7.152473371957e-01 
3.052500000000e+01 7.152473371957e-01 
3.055000000000e+01 7.074470422112e-01 
3.055000000000e+01 7.074470422112e-01 
3.055000000000e+01 7.074470422112e-01 
3.055000000000e+01 7.074470422112e-01 
3.055000000000e+01 7.074470422112e-01 
3.057500000000e+01 6.999782156504e-01 
3.057500000000e+01 6.999782156504e-01 
3.057500000000e+01 6.999782156504e-01 
3.057500000000e+01 6.999782156504e-01 
3.057500000000e+01 6.999782156504e-01 
3.060000000000e+01 6.928185651596e-01 
3.060000000000e+01 6.928185651596e-01 
3.060000000000e+01 6.928185651596e-01 
3.060000000000e+01 6.928185651596e-01 
3.060000000000e+01 6.928185651596e-01 
3.062500000000e+01 6.859477139679e-01 
3.062500000000e+01 6.859477139679e-01 
3.062500000000e+01 6.859477139679e-01 
3.062500000000e+01 6.859477139679e-01 
3.062500000000e+01 6.859477139679e-01 
3.065000000000e+01 6.793470165436e-01 
3.065000000000e+01 6.793470165436e-01 
3.065000000000e+01 6.793470165436e-01 
3.065000000000e+01 6.793470165436e-01 
3.065000000000e+01 6.793470165436e-01 
3.067500000000e+01 6.729993909360e-01 
3.067500000000e+01 6.729993909360e-01 
3.067500000000e+01 6.729993909360e-01 
3.067500000000e+01 6.729993909360e-01 
3.067500000000e+01 6.729993909360e-01 
3.070000000000e+01 6.668891672206e-01 
3.070000000000e+01 6.668891672206e-01 
3.070000000000e+01 6.668891672206e-01 
3.070000000000e+01 6.668891672206e-01 
3.070000000000e+01 6.668891672206e-01 
3.072500000000e+01 6.610019510587e-01 
3.072500000000e+01 6.610019510587e-01 
3.072500000000e+01 6.610019510587e-01 
3.072500000000e+01 6.610019510587e-01 
3.072500000000e+01 6.610019510587e-01 
3.075000000000e+01 6.553245011865e-01 
3.075000000000e+01 6.553245011865e-01 
3.075000000000e+01 6.553245011865e-01 
3.075000000000e+01 6.553245011865e-01 
3.075000000000e+01 6.553245011865e-01 
3.077500000000e+01 6.498446195878e-01 
3.077500000000e+01 6.498446195878e-01 
3.077500000000e+01 6.498446195878e-01 
3.077500000000e+01 6.498446195878e-01 
3.077500000000e+01 6.498446195878e-01 
3.080000000000e+01 6.445510531188e-01 
3.080000000000e+01 6.445510531188e-01 
3.080000000000e+01 6.445510531188e-01 
3.080000000000e+01 6.445510531188e-01 
3.080000000000e+01 6.445510531188e-01 
3.082500000000e+01 6.394334054150e-01 
3.082500000000e+01 6.394334054150e-01 
3.082500000000e+01 6.394334054150e-01 
3.082500000000e+01 6.394334054150e-01 
3.082500000000e+01 6.394334054150e-01 
3.085000000000e+01 6.344820579917e-01 
3.085000000000e+01 6.344820579917e-01 
3.085000000000e+01 6.344820579917e-01 
3.085000000000e+01 6.344820579917e-01 
3.085000000000e+01 6.344820579917e-01 
3.087500000000e+01 6.296880995462e-01 
3.087500000000e+01 6.296880995462e-01 
3.087500000000e+01 6.296880995462e-01 
3.087500000000e+01 6.296880995462e-01 
3.087500000000e+01 6.296880995462e-01 
3.090000000000e+01 6.250432625624e-01 
3.090000000000e+01 6.250432625624e-01 
3.090000000000e+01 6.250432625624e-01 
3.090000000000e+01 6.250432625624e-01 
3.090000000000e+01 6.250432625624e-01 
3.092500000000e+01 6.205398664126e-01 
3.092500000000e+01 6.205398664126e-01 
3.092500000000e+01 6.205398664126e-01 
3.092500000000e+01 6.205398664126e-01 
3.092500000000e+01 6.205398664126e-01 
3.095000000000e+01 6.161707662369e-01 
3.095000000000e+01 6.161707662369e-01 
3.095000000000e+01 6.161707662369e-01 
3.095000000000e+01 6.161707662369e-01 
3.095000000000e+01 6.161707662369e-01 
3.097500000000e+01 6.119293069613e-01 
3.097500000000e+01 6.119293069613e-01 
3.097500000000e+01 6.119293069613e-01 
3.097500000000e+01 6.119293069613e-01 
3.097500000000e+01 6.119293069613e-01 
3.100000000000e+01 6.078092818871e-01 
3.100000000000e+01 6.078092818871e-01 
3.100000000000e+01 6.078092818871e-01 
3.100000000000e+01 6.078092818871e-01 
3.100000000000e+01 6.078092818871e-01 
3.102500000000e+01 6.038048953494e-01 
3.102500000000e+01 6.038048953494e-01 
3.102500000000e+01 6.038048953494e-01 
3.102500000000e+01 6.038048953494e-01 
3.102500000000e+01 6.038048953494e-01 
3.105000000000e+01 5.999107290013e-01 
3.105000000000e+01 5.999107290013e-01 
3.105000000000e+01 5.999107290013e-01 
3.105000000000e+01 5.999107290013e-01 
3.105000000000e+01 5.999107290013e-01 
3.107500000000e+01 5.961217113309e-01 
3.107500000000e+01 5.961217113309e-01 
3.107500000000e+01 5.961217113309e-01 
3.107500000000e+01 5.961217113309e-01 
3.107500000000e+01 5.961217113309e-01 
3.110000000000e+01 5.924330900627e-01 
3.110000000000e+01 5.924330900627e-01 
3.110000000000e+01 5.924330900627e-01 
3.110000000000e+01 5.924330900627e-01 
3.110000000000e+01 5.924330900627e-01 
3.112500000000e+01 5.888404071392e-01 
3.112500000000e+01 5.888404071392e-01 
3.112500000000e+01 5.888404071392e-01 
3.112500000000e+01 5.888404071392e-01 
3.112500000000e+01 5.888404071392e-01 
3.115000000000e+01 5.853394760078e-01 
3.115000000000e+01 5.853394760078e-01 
3.115000000000e+01 5.853394760078e-01 
3.115000000000e+01 5.853394760078e-01 
3.115000000000e+01 5.853394760078e-01 
3.117500000000e+01 5.819263609758e-01 
3.117500000000e+01 5.819263609758e-01 
3.117500000000e+01 5.819263609758e-01 
3.117500000000e+01 5.819263609758e-01 
3.117500000000e+01 5.819263609758e-01 
3.120000000000e+01 5.785973584173e-01 
3.120000000000e+01 5.785973584173e-01 
3.120000000000e+01 5.785973584173e-01 
3.120000000000e+01 5.785973584173e-01 
3.120000000000e+01 5.785973584173e-01 
3.122500000000e+01 5.753489796460e-01 
3.122500000000e+01 5.753489796460e-01 
3.122500000000e+01 5.753489796460e-01 
3.122500000000e+01 5.753489796460e-01 
3.122500000000e+01 5.753489796460e-01 
3.125000000000e+01 5.721779352840e-01 
3.125000000000e+01 5.721779352840e-01 
3.125000000000e+01 5.721779352840e-01 
3.125000000000e+01 5.721779352840e-01 
3.125000000000e+01 5.721779352840e-01 
3.127500000000e+01 5.690811209785e-01 
3.127500000000e+01 5.690811209785e-01 
3.127500000000e+01 5.690811209785e-01 
3.127500000000e+01 5.690811209785e-01 
3.127500000000e+01 5.690811209785e-01 
3.130000000000e+01 5.660556043336e-01 
3.130000000000e+01 5.660556043336e-01 
3.130000000000e+01 5.660556043336e-01 
3.130000000000e+01 5.660556043336e-01 
3.130000000000e+01 5.660556043336e-01 
3.132500000000e+01 5.630986129391e-01 
3.132500000000e+01 5.630986129391e-01 
3.132500000000e+01 5.630986129391e-01 
3.132500000000e+01 5.630986129391e-01 
3.132500000000e+01 5.630986129391e-01 
3.135000000000e+01 5.602075233904e-01 
3.135000000000e+01 5.602075233904e-01 
3.135000000000e+01 5.602075233904e-01 
3.135000000000e+01 5.602075233904e-01 
3.135000000000e+01 5.602075233904e-01 
3.137500000000e+01 5.573798512060e-01 
3.137500000000e+01 5.573798512060e-01 
3.137500000000e+01 5.573798512060e-01 
3.137500000000e+01 5.573798512060e-01 
3.137500000000e+01 5.573798512060e-01 
3.140000000000e+01 5.546132415581e-01 
3.140000000000e+01 5.546132415581e-01 
3.140000000000e+01 5.546132415581e-01 
3.140000000000e+01 5.546132415581e-01 
3.140000000000e+01 5.546132415581e-01 
3.142500000000e+01 5.519054607414e-01 
3.142500000000e+01 5.519054607414e-01 
3.142500000000e+01 5.519054607414e-01 
3.142500000000e+01 5.519054607414e-01 
3.142500000000e+01 5.519054607414e-01 
3.145000000000e+01 5.492543883110e-01 
3.145000000000e+01 5.492543883110e-01 
3.145000000000e+01 5.492543883110e-01 
3.145000000000e+01 5.492543883110e-01 
3.145000000000e+01 5.492543883110e-01 
3.147500000000e+01 5.466580098318e-01 
3.147500000000e+01 5.466580098318e-01 
3.147500000000e+01 5.466580098318e-01 
3.147500000000e+01 5.466580098318e-01 
3.147500000000e+01 5.466580098318e-01 
3.150000000000e+01 5.441144101810e-01 
3.150000000000e+01 5.441144101810e-01 
3.150000000000e+01 5.441144101810e-01 
3.150000000000e+01 5.441144101810e-01 
3.150000000000e+01 5.441144101810e-01 
3.152500000000e+01 5.416217673588e-01 
3.152500000000e+01 5.416217673588e-01 
3.152500000000e+01 5.416217673588e-01 
3.152500000000e+01 5.416217673588e-01 
3.152500000000e+01 5.416217673588e-01 
3.155000000000e+01 5.391783467591e-01 
3.155000000000e+01 5.391783467591e-01 
3.155000000000e+01 5.391783467591e-01 
3.155000000000e+01 5.391783467591e-01 
3.155000000000e+01 5.391783467591e-01 
3.157500000000e+01 5.367824958643e-01 
3.157500000000e+01 5.367824958643e-01 
3.157500000000e+01 5.367824958643e-01 
3.157500000000e+01 5.367824958643e-01 
3.157500000000e+01 5.367824958643e-01 
3.160000000000e+01 5.344326393247e-01 
3.160000000000e+01 5.344326393247e-01 
3.160000000000e+01 5.344326393247e-01 
3.160000000000e+01 5.344326393247e-01 
3.160000000000e+01 5.344326393247e-01 
3.162500000000e+01 5.321272743928e-01 
3.162500000000e+01 5.321272743928e-01 
3.162500000000e+01 5.321272743928e-01 
3.162500000000e+01 5.321272743928e-01 
3.162500000000e+01 5.321272743928e-01 
3.165000000000e+01 5.298649666811e-01 
3.165000000000e+01 5.298649666811e-01 
3.165000000000e+01 5.298649666811e-01 
3.165000000000e+01 5.298649666811e-01 
3.165000000000e+01 5.298649666811e-01 
3.167500000000e+01 5.276443462180e-01 
3.167500000000e+01 5.276443462180e-01 
3.167500000000e+01 5.276443462180e-01 
3.167500000000e+01 5.276443462180e-01 
3.167500000000e+01 5.276443462180e-01 
3.170000000000e+01 5.254641037767e-01 
3.170000000000e+01 5.254641037767e-01 
3.170000000000e+01 5.254641037767e-01 
3.170000000000e+01 5.254641037767e-01 
3.170000000000e+01 5.254641037767e-01 
3.172500000000e+01 5.233229874560e-01 
3.172500000000e+01 5.233229874560e-01 
3.172500000000e+01 5.233229874560e-01 
3.172500000000e+01 5.233229874560e-01 
3.172500000000e+01 5.233229874560e-01 
3.175000000000e+01 5.212197994921e-01 
3.175000000000e+01 5.212197994921e-01 
3.175000000000e+01 5.212197994921e-01 
3.175000000000e+01 5.212197994921e-01 
3.175000000000e+01 5.212197994921e-01 
3.177500000000e+01 5.191533932842e-01 
3.177500000000e+01 5.191533932842e-01 
3.177500000000e+01 5.191533932842e-01 
3.177500000000e+01 5.191533932842e-01 
3.177500000000e+01 5.191533932842e-01 
3.180000000000e+01 5.171226706164e-01 
3.180000000000e+01 5.171226706164e-01 
3.180000000000e+01 5.171226706164e-01 
3.180000000000e+01 5.171226706164e-01 
3.180000000000e+01 5.171226706164e-01 
3.182500000000e+01 5.151265790614e-01 
3.182500000000e+01 5.151265790614e-01 
3.182500000000e+01 5.151265790614e-01 
3.182500000000e+01 5.151265790614e-01 
3.182500000000e+01 5.151265790614e-01 
3.185000000000e+01 5.131641095520e-01 
3.185000000000e+01 5.131641095520e-01 
3.185000000000e+01 5.131641095520e-01 
3.185000000000e+01 5.131641095520e-01 
3.185000000000e+01 5.131641095520e-01 
3.187500000000e+01 5.112342941078e-01 
3.187500000000e+01 5.112342941078e-01 
3.187500000000e+01 5.112342941078e-01 
3.187500000000e+01 5.112342941078e-01 
3.187500000000e+01 5.112342941078e-01 
3.190000000000e+01 5.093362037054e-01 
3.190000000000e+01 5.093362037054e-01 
3.190000000000e+01 5.093362037054e-01 
3.190000000000e+01 5.093362037054e-01 
3.190000000000e+01 5.093362037054e-01 
3.192500000000e+01 5.074689462822e-01 
3.192500000000e+01 5.074689462822e-01 
3.192500000000e+01 5.074689462822e-01 
3.192500000000e+01 5.074689462822e-01 
3.192500000000e+01 5.074689462822e-01 
3.195000000000e+01 5.056316648631e-01 
3.195000000000e+01 5.056316648631e-01 
3.195000000000e+01 5.056316648631e-01 
3.195000000000e+01 5.056316648631e-01 
3.195000000000e+01 5.056316648631e-01 
3.197500000000e+01 5.038235358020e-01 
3.197500000000e+01 5.038235358020e-01 
3.197500000000e+01 5.038235358020e-01 
3.197500000000e+01 5.038235358020e-01 
3.197500000000e+01 5.038235358020e-01 
3.200000000000e+01 5.016114667494e-01 
3.200000000000e+01 5.016136772258e-01 
3.200000000000e+01 5.016147808095e-01 
3.200000000000e+01 5.016125725388e-01 
3.200000000000e+01 5.016158832889e-01 
3.269803354378e+01 4.607770919755e-01 
3.269903388606e+01 4.607274820291e-01 
3.270003422835e+01 4.606778945559e-01 
3.270103457063e+01 4.606283295391e-01 
3.270203491291e+01 4.605787869614e-01 
3.339606708756e+01 4.319339859927e-01 
3.339806777213e+01 4.318614485881e-01 
3.340006845669e+01 4.317889661982e-01 
3.340206914126e+01 4.317165387510e-01 
3.340406982583e+01 4.316441661748e-01 
3.409410063134e+01 4.098168943360e-01 
3.409710165819e+01 4.097318684620e-01 
3.410010268504e+01 4.096469235980e-01 
3.410310371189e+01 4.095620596098e-01 
3.410610473874e+01 4.094772763636e-01 
3.479213417512e+01 3.921001427502e-01 
3.479613554425e+01 3.920079590515e-01 
3.480013691339e+01 3.919158758672e-01 
3.480413828252e+01 3.918238930065e-01 
3.480813965166e+01 3.917320102792e-01 
3.549016771890e+01 3.774442440809e-01 
3.549516943032e+01 3.773478595746e-01 
3.550017114174e+01 3.772515900862e-01 
3.550517285315e+01 3.771554353766e-01 
3.551017456457e+01 3.770593952073e-01 
 TITLE = "Profiles along polylines"
 VARIABLES = "DIST" "SATURATION1" 
 ZONE T="TIME=1.797693134862e+308"
4.901677189013e-01 1.000000000000e+00 
4.951694303187e-01 1.000000000000e+00 
5.001711417360e-01 1.000000000000e+00 
5.051728531534e-01 1.000000000000e+00 
5.101745645707e-01 1.000000000000e+00 
1.473828794938e+00 1.000000000000e+00 
1.478663782641e+00 1.000000000000e+00 
1.483498770345e+00 1.000000000000e+00 
1.488333758048e+00 1.000000000000e+00 
1.493168745751e+00 1.000000000000e+00 
2.457489870974e+00 1.000000000000e+00 
2.462158134963e+00 1.000000000000e+00 
2.466826398953e+00 1.000000000000e+00 
2.471494662942e+00 1.000000000000e+00 
2.476162926932e+00 1.000000000000e+00 
3.441150947011e+00 1.000000000000e+00 
3.445652487286e+00 1.000000000000e+00 
3.450154027562e+00 1.000000000000e+00 
3.454655567838e+00 1.000000000000e+00 
3.459157108113e+00 1.000000000000e+00 
4.424812023048e+00 1.000000000000e+00 
4.429146839609e+00 1.000000000000e+00 
4.433481656171e+00 1.000000000000e+00 
4.437816472733e+00 1.000000000000e+00 
4.442151289294e+00 1.000000000000e+00 
5.408473099083e+00 1.000000000000e+00 
5.412641191931e+00 1.000000000000e+00 
5.416809284779e+00 1.000000000000e+00 
5.420977377627e+00 1.000000000000e+00 
5.425145470475e+00 1.000000000000e+00 
6.392134175119e+00 1.000000000000e+00 
6.396135544253e+00 1.000000000000e+00 
6.400136913387e+00 1.000000000000e+00 
6.404138282521e+00 1.000000000000e+00 
6.408139651655e+00 1.000000000000e+00 
7.375795251155e+00 1.000000000000e+00 
7.379629896575e+00 1.000000000000e+00 
7.383464541995e+00 1.000000000000e+00 
7.387299187415e+00 1.000000000000e+00 
7.391133832835e+00 1.000000000000e+00 
8.359456327191e+00 1.000000000000e+00 
8.363124248897e+00 1.000000000000e+00 
8.366792170603e+00 1.000000000000e+00 
8.370460092309e+00 1.000000000000e+00 
8.374128014015e+00 1.000000000000e+00 
9.343117403224e+00 1.000000000000e+00 
9.346618601216e+00 1.000000000000e+00 
9.350119799208e+00 1.000000000000e+00 
9.353620997200e+00 1.000000000000e+00 
9.357122195192e+00 1.000000000000e+00 
1.032677847926e+01 1.000000000000e+00 
1.033011295354e+01 1.000000000000e+00 
1.033344742781e+01 1.000000000000e+00 
1.033678190209e+01 1.000000000000e+00 
1.034011637637e+01 1.000000000000e+00 
1.131043955529e+01 1.000000000000e+00 
1.131360730585e+01 1.000000000000e+00 
1.131677505642e+01 1.000000000000e+00 
1.131994280698e+01 1.000000000000e+00 
1.132311055755e+01 1.000000000000e+00 
1.229410063132e+01 1.000000000000e+00 
1.229710165817e+01 1.000000000000e+00 
1.230010268502e+01 1.000000000000e+00 
1.230310371187e+01 1.000000000000e+00 
1.230610473872e+01 1.000000000000e+00 
1.327776170736e+01 1.000000000000e+00 
1.328059601049e+01 1.000000000000e+00 
1.328343031363e+01 1.000000000000e+00 
1.328626461677e+01 1.000000000000e+00 
1.328909891990e+01 1.000000000000e+00 
1.426142278339e+01 1.000000000000e+00 
1.426409036281e+01 1.000000000000e+00 
1.426675794223e+01 1.000000000000e+00 
1.426942552166e+01 1.000000000000e+00 
1.427209310108e+01 1.000000000000e+00 
1.524508385942e+01 1.000000000000e+00 
1.524758471513e+01 1.000000000000e+00 
1.525008557084e+01 1.000000000000e+00 
1.525258642655e+01 1.000000000000e+00 
1.525508728226e+01 1.000000000000e+00 
1.622874493546e+01 1.000000000000e+00 
1.623107906745e+01 1.000000000000e+00 
1.623341319945e+01 1.000000000000e+00 
1.623574733144e+01 1.000000000000e+00 
1.623808146344e+01 1.000000000000e+00 
1.721240601150e+01 1.000000000000e+00 
1.721457341978e+01 1.000000000000e+00 
1.721674082806e+01 1.000000000000e+00 
1.721890823634e+01 1.000000000000e+00 
1.722107564462e+01 1.000000000000e+00 
1.819606708754e+01 1.000000000000e+00 
1.819806777210e+01 1.000000000000e+00 
1.820006845667e+01 1.000000000000e+00 
1.820206914124e+01 1.000000000000e+00 
1.820406982580e+01 1.000000000000e+00 
1.917972816358e+01 1.000000000000e+00 
1.918156212443e+01 1.000000000000e+00 
1.918339608528e+01 1.000000000000e+00 
1.918523004613e+01 1.000000000000e+00 
1.918706400699e+01 1.000000000000e+00 
2.016338923961e+01 1.000000000000e+00 
2.016505647675e+01 1.000000000000e+00 
2.016672371389e+01 1.000000000000e+00 
2.016839095103e+01 1.000000000000e+00 
2.017005818817e+01 1.000000000000e+00 
2.114705031565e+01 1.000000000000e+00 
2.114855082908e+01 1.000000000000e+00 
2.115005134250e+01 1.000000000000e+00 
2.115155185593e+01 1.000000000000e+00 
2.115305236935e+01 1.000000000000e+00 
2.213071139169e+01 1.000000000000e+00 
2.213204518140e+01 1.000000000000e+00 
2.213337897111e+01 1.000000000000e+00 
2.213471276083e+01 1.000000000000e+00 
2.213604655054e+01 1.000000000000e+00 
2.311437246773e+01 1.000000000000e+00 
2.311553953373e+01 1.000000000000e+00 
2.311670659972e+01 1.000000000000e+00 
2.311787366572e+01 1.000000000000e+00 
2.311904073172e+01 1.000000000000e+00 
2.409803354377e+01 1.000000000000e+00 
2.409903388605e+01 1.000000000000e+00 
2.410003422834e+01 1.000000000000e+00 
2.410103457062e+01 1.000000000000e+00 
2.410203491290e+01 1.000000000000e+00 
2.508169461981e+01 1.000000000000e+00 
2.508252823838e+01 1.000000000000e+00 
2.508336185695e+01 1.000000000000e+00 
2.508419547552e+01 1.000000000000e+00 
2.508502909409e+01 1.000000000000e+00 
2.606535569585e+01 1.000000000000e+00 
2.606602259070e+01 1.000000000000e+00 
2.606668948556e+01 1.000000000000e+00 
2.606735638041e+01 1.000000000000e+00 
2.606802327527e+01 1.000000000000e+00 
2.704901677188e+01 1.000000000000e+00 
2.704951694303e+01 1.000000000000e+00 
2.705001711417e+01 1.000000000000e+00 
2.705051728531e+01 1.000000000000e+00 
2.705101745645e+01 1.000000000000e+00 
2.803267784792e+01 1.000000000000e+00 
2.803301129535e+01 1.000000000000e+00 
2.803334474278e+01 1.000000000000e+00 
2.803367819021e+01 1.000000000000e+00 
2.803401163763e+01 1.000000000000e+00 
2.901633892396e+01 1.000000000000e+00 
2.901650564768e+01 1.000000000000e+00 
2.901667237139e+01 1.000000000000e+00 
2.901683909510e+01 1.000000000000e+00 
2.901700581882e+01 1.000000000000e+00 
3.000000000000e+01 1.000000000000e+00 
3.000000000000e+01 1.000000000000e+00 
3.000000000000e+01 1.000000000000e+00 
3.000000000000e+01 1.000000000000e+00 
3.000000000000e+01 1.000000000000e+00 
3.002500000000e+01 1.000000000000e+00 
3.002500000000e+01 1.000000000000e+00 
3.002500000000e+01 1.000000000000e+00 
3.002500000000e+01 1.000000000000e+00 
3.002500000000e+01 1.000000000000e+00 
3.005000000000e+01 1.000000000000e+00 
3.005000000000e+01 1.000000000000e+00 
3.005000000000e+01 1.000000000000e+00 
3.005000000000e+01 1.000000000000e+00 
3.005000000000e+01 1.000000000000e+00 
3.007500000000e+01 1.000000000000e+00 
3.007500000000e+01 1.000000000000e+00 
3.007500000000e+01 1.000000000000e+00 
3.007500000000e+01 1.000000000000e+00 
3.007500000000e+01 1.000000000000e+00 
3.010000000000e+01 1.000000000000e+00 
3.010000000000e+01 1.000000000000e+00 
3.010000000000e+01 1.000000000000e+00 
3.010000000000e+01 1.000000000000e+00 
3.010000000000e+01 1.000000000000e+00 
3.012500000000e+01 1.000000000000e+00 
3.012500000000e+01 1.000000000000e+00 
3.012500000000e+01 1.000000000000e+00 
3.012500000000e+01 1.000000000000e+00 
3.012500000000e+01 1.000000000000e+00 
3.015000000000e+01 1.000000000000e+00 
3.015000000000e+01 1.000000000000e+00 
3.015000000000e+01 1.000000000000e+00 