 TITLE = "Profiles along polylines"
 VARIABLES = "DIST" "SATURATION1" 
 ZONE T="TIME=0.000000000000e+00"
1.692041568209e+01 1.000000000000e+00 
1.696039790061e+01 1.000000000000e+00 
1.700028520645e+01 1.000000000000e+00 
1.703028235301e+01 1.000000000000e+00 
1.706027950096e+01 1.000000000000e+00 
1.735640182602e+01 1.000000000000e+00 
1.739505130392e+01 1.000000000000e+00 
1.743360903290e+01 1.000000000000e+00 
1.746260627457e+01 1.000000000000e+00 
1.749160351759e+01 1.000000000000e+00 
1.779238796995e+01 1.000000000000e+00 
1.782970470723e+01 1.000000000000e+00 
1.786693285935e+01 1.000000000000e+00 
1.789493019614e+01 1.000000000000e+00 
1.792292753423e+01 1.000000000000e+00 
1.822837411388e+01 1.000000000000e+00 
1.826435811055e+01 1.000000000000e+00 
1.830025668581e+01 1.000000000000e+00 
1.832725411771e+01 1.000000000000e+00 
1.835425155086e+01 1.000000000000e+00 
1.866436025781e+01 1.000000000000e+00 
1.869901151386e+01 1.000000000000e+00 
1.873358051226e+01 1.000000000000e+00 
1.875957803927e+01 1.000000000000e+00 
1.878557556750e+01 1.000000000000e+00 
1.910034640174e+01 1.000000000000e+00 
1.913366491717e+01 1.000000000000e+00 
1.916690433871e+01 1.000000000000e+00 
1.919190196084e+01 1.000000000000e+00 
1.921689958413e+01 1.000000000000e+00 
1.953633254567e+01 1.000000000000e+00 
1.956831832048e+01 1.000000000000e+00 
1.960022816516e+01 1.000000000000e+00 
1.962422588241e+01 1.000000000000e+00 
1.964822360077e+01 1.000000000000e+00 
1.997231868960e+01 1.000000000000e+00 
2.000297172380e+01 1.000000000000e+00 
2.003355199161e+01 1.000000000000e+00 
2.005654980397e+01 1.000000000000e+00 
2.007954761740e+01 1.000000000000e+00 
2.040830483353e+01 1.000000000000e+00 
2.043762512711e+01 1.000000000000e+00 
2.046687581806e+01 1.000000000000e+00 
2.048887372554e+01 1.000000000000e+00 
2.051087163403e+01 1.000000000000e+00 
2.084429097746e+01 1.000000000000e+00 
2.087227853042e+01 1.000000000000e+00 
2.090019964451e+01 1.000000000000e+00 
2.092119764710e+01 1.000000000000e+00 
2.094219565067e+01 1.000000000000e+00 
2.128027712139e+01 1.000000000000e+00 
2.130693193374e+01 1.000000000000e+00 
2.133352347097e+01 1.000000000000e+00 
2.135352156867e+01 1.000000000000e+00 
2.137351966730e+01 1.000000000000e+00 
2.171626326532e+01 1.000000000000e+00 
2.174158533705e+01 1.000000000000e+00 
2.176684729742e+01 1.000000000000e+00 
2.178584549024e+01 1.000000000000e+00 
2.180484368394e+01 1.000000000000e+00 
2.215224940925e+01 1.000000000000e+00 
2.217623874036e+01 1.000000000000e+00 
2.220017112387e+01 1.000000000000e+00 
2.221816941180e+01 1.000000000000e+00 
2.223616770057e+01 1.000000000000e+00 
2.258823555318e+01 1.000000000000e+00 
2.261089214367e+01 1.000000000000e+00 
2.263349495032e+01 1.000000000000e+00 
2.265049333337e+01 1.000000000000e+00 
2.266749171721e+01 1.000000000000e+00 
2.302422169711e+01 1.000000000000e+00 
2.304554554699e+01 1.000000000000e+00 
2.306681877677e+01 1.000000000000e+00 
2.308281725493e+01 1.000000000000e+00 
2.309881573384e+01 1.000000000000e+00 
2.346020784104e+01 1.000000000000e+00 
2.348019895030e+01 1.000000000000e+00 
2.350014260322e+01 1.000000000000e+00 
2.351514117650e+01 1.000000000000e+00 
2.353013975047e+01 1.000000000000e+00 
2.389619398497e+01 1.000000000000e+00 
2.391485235361e+01 1.000000000000e+00 
2.393346642967e+01 1.000000000000e+00 
2.394746509807e+01 1.000000000000e+00 
2.396146376711e+01 1.000000000000e+00 
2.433218012890e+01 1.000000000000e+00 
2.434950575693e+01 1.000000000000e+00 
2.436679025612e+01 1.000000000000e+00 
2.437978901963e+01 1.000000000000e+00 
2.439278778374e+01 1.000000000000e+00 
2.476816627283e+01 1.000000000000e+00 
2.478415916024e+01 1.000000000000e+00 
2.480011408258e+01 1.000000000000e+00 
2.481211294120e+01 1.000000000000e+00 
2.482411180038e+01 1.000000000000e+00 
2.520415241676e+01 1.000000000000e+00 
2.521881256355e+01 1.000000000000e+00 
2.523343790903e+01 1.000000000000e+00 
2.524443686277e+01 1.000000000000e+00 
2.525543581701e+01 1.000000000000e+00 
2.564013856069e+01 1.000000000000e+00 
2.565346596687e+01 1.000000000000e+00 
2.566676173548e+01 1.000000000000e+00 
2.567676078433e+01 1.000000000000e+00 
2.568675983365e+01 1.000000000000e+00 
2.607612470462e+01 1.000000000000e+00 
2.608811937018e+01 1.000000000000e+00 
2.610008556193e+01 1.000000000000e+00 
2.610908470590e+01 1.000000000000e+00 
2.611808385028e+01 1.000000000000e+00 
2.651211084856e+01 1.000000000000e+00 
2.652277277349e+01 1.000000000000e+00 
2.653340938838e+01 1.000000000000e+00 
2.654140862747e+01 1.000000000000e+00 
2.654940786692e+01 1.000000000000e+00 
2.694809699249e+01 1.000000000000e+00 
2.695742617681e+01 1.000000000000e+00 
2.696673321484e+01 1.000000000000e+00 
2.697373254903e+01 1.000000000000e+00 
2.698073188355e+01 1.000000000000e+00 
2.738408313642e+01 1.000000000000e+00 
2.739207958012e+01 1.000000000000e+00 
2.740005704129e+01 1.000000000000e+00 
2.740605647060e+01 1.000000000000e+00 
2.741205590019e+01 1.000000000000e+00 
2.782006928035e+01 1.000000000000e+00 
2.782673298343e+01 1.000000000000e+00 
2.783338086774e+01 1.000000000000e+00 
2.783838039217e+01 1.000000000000e+00 
2.784337991682e+01 1.000000000000e+00 
2.825605542428e+01 1.000000000000e+00 
2.826138638675e+01 1.000000000000e+00 
2.826670469419e+01 1.000000000000e+00 
2.827070431373e+01 1.000000000000e+00 
2.827470393346e+01 1.000000000000e+00 
2.869204156821e+01 1.000000000000e+00 
2.869603979006e+01 1.000000000000e+00 
2.870002852064e+01 1.000000000000e+00 
2.870302823530e+01 1.000000000000e+00 
2.870602795009e+01 1.000000000000e+00 
2.912802771214e+01 1.000000000000e+00 
2.913069319337e+01 1.000000000000e+00 
2.913335234710e+01 1.000000000000e+00 
2.913535215687e+01 1.000000000000e+00 
2.913735196673e+01 1.000000000000e+00 
2.956401385607e+01 1.000000000000e+00 
2.956534659669e+01 1.000000000000e+00 
2.956667617355e+01 1.000000000000e+00 
2.956767607843e+01 1.000000000000e+00 
2.956867598337e+01 1.000000000000e+00 
3.000000000000e+01 1.000000000000e+00 
3.000000000000e+01 1.000000000000e+00 
3.000000000000e+01 1.000000000000e+00 
3.000000000000e+01 1.000000000000e+00 
3.000000000000e+01 1.000000000000e+00 
3.002500000000e+01 9.876207709446e-01 
3.002500000000e+01 9.876207709446e-01 
3.002500000000e+01 9.876207709446e-01 
3.002500000000e+01 9.876207709446e-01 
3.002500000000e+01 9.876207709446e-01 
3.005000000000e+01 9.697756439369e-01 
3.005000000000e+01 9.697756439369e-01 
3.005000000000e+01 9.697756439369e-01 
3.005000000000e+01 9.697756439369e-01 
3.005000000000e+01 9.697756439369e-01 
3.007500000000e+01 9.507134089444e-01 
3.007500000000e+01 9.507134089444e-01 
3.007500000000e+01 9.507134089444e-01 
3.007500000000e+01 9.507134089444e-01 
3.007500000000e+01 9.507134089444e-01 
3.010000000000e+01 9.315621650298e-01 
3.010000000000e+01 9.315621650298e-01 
3.010000000000e+01 9.315621650298e-01 
3.010000000000e+01 9.315621650298e-01 
3.010000000000e+01 9.315621650298e-01 
3.012500000000e+01 9.128758324042e-01 
3.012500000000e+01 9.128758324042e-01 
3.012500000000e+01 9.128758324042e-01 
3.012500000000e+01 9.128758324042e-01 
3.012500000000e+01 9.128758324042e-01 
3.015000000000e+01 8.949248043380e-01 
3.015000000000e+01 8.949248043380e-01 
3.015000000000e+01 8.949248043380e-01 
3.015000000000e+01 8.949248043380e-01 
3.015000000000e+01 8.949248043380e-01 
3.017500000000e+01 8.778290027968e-01 
3.017500000000e+01 8.778290027968e-01 
3.017500000000e+01 8.778290027968e-01 
3.017500000000e+01 8.778290027968e-01 
3.017500000000e+01 8.778290027968e-01 
3.020000000000e+01 8.616255702900e-01 
3.020000000000e+01 8.616255702900e-01 
3.020000000000e+01 8.616255702900e-01 
3.020000000000e+01 8.616255702900e-01 
3.020000000000e+01 8.616255702900e-01 
3.022500000000e+01 8.463059583920e-01 
3.022500000000e+01 8.463059583920e-01 
3.022500000000e+01 8.463059583920e-01 
3.022500000000e+01 8.463059583920e-01 
3.022500000000e+01 8.463059583920e-01 
3.025000000000e+01 8.318370344398e-01 
3.025000000000e+01 8.318370344398e-01 
3.025000000000e+01 8.318370344398e-01 
3.025000000000e+01 8.318370344398e-01 
3.025000000000e+01 8.318370344398e-01 
3.027500000000e+01 8.181733156316e-01 
3.027500000000e+01 8.181733156316e-01 
3.027500000000e+01 8.181733156316e-01 
3.027500000000e+01 8.181733156316e-01 
3.027500000000e+01 8.181733156316e-01 
3.030000000000e+01 8.052640970350e-01 
3.030000000000e+01 8.052640970350e-01 
3.030000000000e+01 8.052640970350e-01 
3.030000000000e+01 8.052640970350e-01 
3.030000000000e+01 8.052640970350e-01 
3.032500000000e+01 7.930575753856e-01 
3.032500000000e+01 7.930575753856e-01 
3.032500000000e+01 7.930575753856e-01 
3.032500000000e+01 7.930575753856e-01 
3.032500000000e+01 7.930575753856e-01 
3.035000000000e+01 7.815031815402e-01 
3.035000000000e+01 7.815031815402e-01 
3.035000000000e+01 7.815031815402e-01 
3.035000000000e+01 7.815031815402e-01 
3.035000000000e+01 7.815031815402e-01 
3.037500000000e+01 7.705528376764e-01 
3.037500000000e+01 7.705528376764e-01 
3.037500000000e+01 7.705528376764e-01 
3.037500000000e+01 7.705528376764e-01 
3.037500000000e+01 7.705528376764e-01 
3.040000000000e+01 7.601615689674e-01 
3.040000000000e+01 7.601615689674e-01 
3.040000000000e+01 7.601615689674e-01 
3.040000000000e+01 7.601615689674e-01 
3.040000000000e+01 7.601615689674e-01 
3.042500000000e+01 7.502877306002e-01 
3.042500000000e+01 7.502877306002e-01 
3.042500000000e+01 7.502877306002e-01 
3.042500000000e+01 7.502877306002e-01 
3.042500000000e+01 7.502877306002e-01 
3.045000000000e+01 7.408930096824e-01 
3.045000000000e+01 7.408930096824e-01 
3.045000000000e+01 7.408930096824e-01 
3.045000000000e+01 7.408930096824e-01 
3.045000000000e+01 7.408930096824e-01 
3.047500000000e+01 7.319422999608e-01 
3.047500000000e+01 7.319422999608e-01 
3.047500000000e+01 7.319422999608e-01 
3.047500000000e+01 7.319422999608e-01 
3.047500000000e+01 7.319422999608e-01 
3.050000000000e+01 7.234035093991e-01 
3.050000000000e+01 7.234035093991e-01 
3.050000000000e+01 7.234035093991e-01 
3.050000000000e+01 7.234035093991e-01 
3.050000000000e+01 7.234035093991e-01 
3.052500000000e+01 7.152473371957e-01 
3.052500000000e+01 7.152473371957e-01 
3.052500000000e+01 7.152473371957e-01 
3.052500000000e+01 7.152473371957e-01 
3.052500000000e+01 7.152473371957e-01 
3.055000000000e+01 7.074470422112e-01 
3.055000000000e+01 7.074470422112e-01 
3.055000000000e+01 7.074470422112e-01 
3.055000000000e+01 7.074470422112e-01 
3.055000000000e+01 7.074470422112e-01 
3.057500000000e+01 6.999782156504e-01 
3.057500000000e+01 6.999782156504e-01 
3.057500000000e+01 6.999782156504e-01 
3.057500000000e+01 6.999782156504e-01 
3.057500000000e+01 6.999782156504e-01 
3.060000000000e+01 6.928185651596e-01 
3.060000000000e+01 6.928185651596e-01 
3.060000000000e+01 6.928185651596e-01 
3.060000000000e+01 6.928185651596e-01 
3.060000000000e+01 6.928185651596e-01 
3.062500000000e+01 6.859477139679e-01 
3.062500000000e+01 6.859477139679e-01 
3.062500000000e+01 6.859477139679e-01 
3.062500000000e+01 6.859477139679e-01 
3.062500000000e+01 6.859477139679e-01 
3.065000000000e+01 6.793470165436e-01 
3.065000000000e+01 6.793470165436e-01 
3.065000000000e+01 6.793470165436e-01 
3.065000000000e+01 6.793470165436e-01 
3.065000000000e+01 6.793470165436e-01 
3.067500000000e+01 6.729993909360e-01 
3.067500000000e+01 6.729993909360e-01 
3.067500000000e+01 6.729993909360e-01 
3.067500000000e+01 6.729993909360e-01 
3.067500000000e+01 6.729993909360e-01 
3.070000000000e+01 6.668891672206e-01 
3.070000000000e+01 6.668891672206e-01 
3.070000000000e+01 6.668891672206e-01 
3.070000000000e+01 6.668891672206e-01 
3.070000000000e+01 6.668891672206e-01 
3.072500000000e+01 6.610019510587e-01 
3.072500000000e+01 6.610019510587e-01 
3.072500000000e+01 6.610019510587e-01 
3.072500000000e+01 6.610019510587e-01 
3.072500000000e+01 6.610019510587e-01 
3.075000000000e+01 6.553245011865e-01 
3.075000000000e+01 6.553245011865e-01 
3.075000000000e+01 6.553245011865e-01 
3.075000000000e+01 6.553245011865e-01 
3.075000000000e+01 6.553245011865e-01 
3.077500000000e+01 6.498446195878e-01 
3.077500000000e+01 6.498446195878e-01 
3.077500000000e+01 6.498446195878e-01 
3.077500000000e+01 6.498446195878e-01 
3.077500000000e+01 6.498446195878e-01 
3.080000000000e+01 6.445510531188e-01 
3.080000000000e+01 6.445510531188e-01 
3.080000000000e+01 6.445510531188e-01 
3.080000000000e+01 6.445510531188e-01 
3.080000000000e+01 6.445510531188e-01 
3.082500000000e+01 6.394334054150e-01 
3.082500000000e+01 6.394334054150e-01 
3.082500000000e+01 6.394334054150e-01 
3.082500000000e+01 6.394334054150e-01 
3.082500000000e+01 6.394334054150e-01 
3.085000000000e+01 6.344820579917e-01 
3.085000000000e+01 6.344820579917e-01 
3.085000000000e+01 6.344820579917e-01 
3.085000000000e+01 6.344820579917e-01 
3.085000000000e+01 6.344820579917e-01 
3.087500000000e+01 6.296880995462e-01 
3.087500000000e+01 6.296880995462e-01 
3.087500000000e+01 6.296880995462e-01 
3.087500000000e+01 6.296880995462e-01 
3.087500000000e+01 6.296880995462e-01 
3.090000000000e+01 6.250432625624e-01 
3.090000000000e+01 6.250432625624e-01 
3.090000000000e+01 6.250432625624e-01 
3.090000000000e+01 6.250432625624e-01 
3.090000000000e+01 6.250432625624e-01 
3.092500000000e+01 6.205398664126e-01 
3.092500000000e+01 6.205398664126e-01 
3.092500000000e+01 6.205398664126e-01 
3.092500000000e+01 6.205398664126e-01 
3.092500000000e+01 6.205398664126e-01 
3.095000000000e+01 6.161707662369e-01 
3.095000000000e+01 6.161707662369e-01 
3.095000000000e+01 6.161707662369e-01 
3.095000000000e+01 6.161707662369e-01 
3.095000000000e+01 6.161707662369e-01 
3.097500000000e+01 6.119293069613e-01 
3.097500000000e+01 6.119293069613e-01 
3.097500000000e+01 6.119293069613e-01 
3.097500000000e+01 6.119293069613e-01 
3.097500000000e+01 6.119293069613e-01 
3.100000000000e+01 6.078092818871e-01 
3.100000000000e+01 6.078092818871e-01 
3.100000000000e+01 6.078092818871e-01 
3.100000000000e+01 6.078092818871e-01 
3.100000000000e+01 6.078092818871e-01 
3.102500000000e+01 6.038048953494e-01 
3.102500000000e+01 6.038048953494e-01 
3.102500000000e+01 6.038048953494e-01 
3.102500000000e+01 6.038048953494e-01 
3.102500000000e+01 6.038048953494e-01 
3.105000000000e+01 5.999107290013e-01 
3.105000000000e+01 5.999107290013e-01 
3.105000000000e+01 5.999107290013e-01 
3.105000000000e+01 5.999107290013e-01 
3.105000000000e+01 5.999107290013e-01 
3.107500000000e+01 5.961217113309e-01 
3.107500000000e+01 5.961217113309e-01 
3.107500000000e+01 5.961217113309e-01 
3.107500000000e+01 5.961217113309e-01 
3.107500000000e+01 5.961217113309e-01 
3.110000000000e+01 5.924330900627e-01 
3.110000000000e+01 5.924330900627e-01 
3.110000000000e+01 5.924330900627e-01 
3.110000000000e+01 5.924330900627e-01 
3.110000000000e+01 5.924330900627e-01 
3.112500000000e+01 5.888404071392e-01 
3.112500000000e+01 5.888404071392e-01 
3.112500000000e+01 5.888404071392e-01 
3.112500000000e+01 5.888404071392e-01 
3.112500000000e+01 5.888404071392e-01 
3.115000000000e+01 5.853394760078e-01 
3.115000000000e+01 5.853394760078e-01 
3.115000000000e+01 5.853394760078e-01 
3.115000000000e+01 5.853394760078e-01 
3.115000000000e+01 5.853394760078e-01 
3.117500000000e+01 5.819263609758e-01 
3.117500000000e+01 5.819263609758e-01 
3.117500000000e+01 5.819263609758e-01 
3.117500000000e+01 5.819263609758e-01 
3.117500000000e+01 5.819263609758e-01 
3.120000000000e+01 5.785973584173e-01 
3.120000000000e+01 5.785973584173e-01 
3.120000000000e+01 5.785973584173e-01 
3.120000000000e+01 5.785973584173e-01 
3.120000000000e+01 5.785973584173e-01 
3.122500000000e+01 5.753489796460e-01 
3.122500000000e+01 5.753489796460e-01 
3.122500000000e+01 5.753489796460e-01 
3.122500000000e+01 5.753489796460e-01 
3.122500000000e+01 5.753489796460e-01 
3.125000000000e+01 5.721779352840e-01 
3.125000000000e+01 5.721779352840e-01 
3.125000000000e+01 5.721779352840e-01 
3.125000000000e+01 5.721779352840e-01 
3.125000000000e+01 5.721779352840e-01 
3.127500000000e+01 5.690811209785e-01 
3.127500000000e+01 5.690811209785e-01 
3.127500000000e+01 5.690811209785e-01 
3.127500000000e+01 5.690811209785e-01 
3.127500000000e+01 5.690811209785e-01 
3.130000000000e+01 5.660556043336e-01 
3.130000000000e+01 5.660556043336e-01 
3.130000000000e+01 5.660556043336e-01 
3.130000000000e+01 5.660556043336e-01 
3.130000000000e+01 5.660556043336e-01 
3.132500000000e+01 5.630986129391e-01 
3.132500000000e+01 5.630986129391e-01 
3.132500000000e+01 5.630986129391e-01 
3.132500000000e+01 5.630986129391e-01 
3.132500000000e+01 5.630986129391e-01 
3.135000000000e+01 5.602075233904e-01 
3.135000000000e+01 5.602075233904e-01 
3.135000000000e+01 5.602075233904e-01 
3.135000000000e+01 5.602075233904e-01 
3.135000000000e+01 5.602075233904e-01 
3.137500000000e+01 5.573798512060e-01 
3.137500000000e+01 5.573798512060e-01 
3.137500000000e+01 5.573798512060e-01 
3.137500000000e+01 5.573798512060e-01 
3.137500000000e+01 5.573798512060e-01 
3.140000000000e+01 5.546132415581e-01 
3.140000000000e+01 5.546132415581e-01 
3.140000000000e+01 5.546132415581e-01 
3.140000000000e+01 5.546132415581e-01 
3.140000000000e+01 5.546132415581e-01 
3.142500000000e+01 5.519054607414e-01 
3.142500000000e+01 5.519054607414e-01 
3.142500000000e+01 5.519054607414e-01 
3.142500000000e+01 5.519054607414e-01 
3.142500000000e+01 5.519054607414e-01 
3.145000000000e+01 5.492543883110e-01 
3.145000000000e+01 5.492543883110e-01 
3.145000000000e+01 5.492543883110e-01 
3.145000000000e+01 5.492543883110e-01 
3.145000000000e+01 5.492543883110e-01 
3.147500000000e+01 5.466580098318e-01 
3.147500000000e+01 5.466580098318e-01 
3.147500000000e+01 5.466580098318e-01 
3.147500000000e+01 5.466580098318e-01 
3.147500000000e+01 5.466580098318e-01 
3.150000000000e+01 5.441144101810e-01 
3.150000000000e+01 5.441144101810e-01 
3.150000000000e+01 5.441144101810e-01 
3.150000000000e+01 5.441144101810e-01 
3.150000000000e+01 5.441144101810e-01 
3.152500000000e+01 5.416217673588e-01 
3.152500000000e+01 5.416217673588e-01 
3.152500000000e+01 5.416217673588e-01 
3.152500000000e+01 5.416217673588e-01 
3.152500000000e+01 5.416217673588e-01 
3.155000000000e+01 5.391783467591e-01 
3.155000000000e+01 5.391783467591e-01 
3.155000000000e+01 5.391783467591e-01 
3.155000000000e+01 5.391783467591e-01 
3.155000000000e+01 5.391783467591e-01 
3.157500000000e+01 5.367824958643e-01 
3.157500000000e+01 5.367824958643e-01 
3.157500000000e+01 5.367824958643e-01 
3.157500000000e+01 5.367824958643e-01 
3.157500000000e+01 5.367824958643e-01 
3.160000000000e+01 5.344326393247e-01 
3.160000000000e+01 5.344326393247e-01 
3.160000000000e+01 5.344326393247e-01 
3.160000000000e+01 5.344326393247e-01 
3.160000000000e+01 5.344326393247e-01 
3.162500000000e+01 5.321272743928e-01 
3.162500000000e+01 5.321272743928e-01 
3.162500000000e+01 5.321272743928e-01 
3.162500000000e+01 5.321272743928e-01 
3.162500000000e+01 5.321272743928e-01 
3.165000000000e+01 5.298649666811e-01 
3.165000000000e+01 5.298649666811e-01 
3.165000000000e+01 5.298649666811e-01 
3.165000000000e+01 5.298649666811e-01 
3.165000000000e+01 5.298649666811e-01 
3.167500000000e+01 5.276443462180e-01 
3.167500000000e+01 5.276443462180e-01 
3.167500000000e+01 5.276443462180e-01 
3.167500000000e+01 5.276443462180e-01 
3.167500000000e+01 5.276443462180e-01 
3.170000000000e+01 5.254641037767e-01 
3.170000000000e+01 5.254641037767e-01 
3.170000000000e+01 5.254641037767e-01 
3.170000000000e+01 5.254641037767e-01 
3.170000000000e+01 5.254641037767e-01 
3.172500000000e+01 5.233229874560e-01 
3.172500000000e+01 5.233229874560e-01 
3.172500000000e+01 5.233229874560e-01 
3.172500000000e+01 5.233229874560e-01 
3.172500000000e+01 5.233229874560e-01 
3.175000000000e+01 5.212197994921e-01 
3.175000000000e+01 5.212197994921e-01 
3.175000000000e+01 5.212197994921e-01 
3.175000000000e+01 5.212197994921e-01 
3.175000000000e+01 5.212197994921e-01 
3.177500000000e+01 5.191533932842e-01 
3.177500000000e+01 5.191533932842e-01 
3.177500000000e+01 5.191533932842e-01 
3.177500000000e+01 5.191533932842e-01 
3.177500000000e+01 5.191533932842e-01 
3.180000000000e+01 5.171226706164e-01 
3.180000000000e+01 5.171226706164e-01 
3.180000000000e+01 5.171226706164e-01 
3.180000000000e+01 5.171226706164e-01 
3.180000000000e+01 5.171226706164e-01 
3.182500000000e+01 5.151265790614e-01 
3.182500000000e+01 5.151265790614e-01 
3.182500000000e+01 5.151265790614e-01 
3.182500000000e+01 5.151265790614e-01 
3.182500000000e+01 5.151265790614e-01 
3.185000000000e+01 5.131641095520e-01 
3.185000000000e+01 5.131641095520e-01 
3.185000000000e+01 5.131641095520e-01 
3.185000000000e+01 5.131641095520e-01 
3.185000000000e+01 5.131641095520e-01 
3.187500000000e+01 5.112342941078e-01 
3.187500000000e+01 5.112342941078e-01 
3.187500000000e+01 5.112342941078e-01 
3.187500000000e+01 5.112342941078e-01 
3.187500000000e+01 5.112342941078e-01 
3.190000000000e+01 5.093362037054e-01 
3.190000000000e+01 5.093362037054e-01 
3.190000000000e+01 5.093362037054e-01 
3.190000000000e+01 5.093362037054e-01 
3.190000000000e+01 5.093362037054e-01 
3.192500000000e+01 5.074689462822e-01 
3.192500000000e+01 5.074689462822e-01 
3.192500000000e+01 5.074689462822e-01 
3.192500000000e+01 5.074689462822e-01 
3.192500000000e+01 5.074689462822e-01 
3.195000000000e+01 5.056316648631e-01 
3.195000000000e+01 5.056316648631e-01 
3.195000000000e+01 5.056316648631e-01 
3.195000000000e+01 5.056316648631e-01 
3.195000000000e+01 5.056316648631e-01 
3.197500000000e+01 5.038235358020e-01 
3.197500000000e+01 5.038235358020e-01 
3.197500000000e+01 5.038235358020e-01 
3.197500000000e+01 5.038235358020e-01 
3.197500000000e+01 5.038235358020e-01 
3.200000000000e+01 4.951293615261e-01 
3.200000000000e+01 4.951570009170e-01 
3.200000000000e+01 4.951753729646e-01 
3.200000000000e+01 4.951431821150e-01 
3.200000000000e+01 4.951937853959e-01 
3.598408313642e+01 3.645692453774e-01 
3.599207958012e+01 3.644260459101e-01 
3.600005704129e+01 3.642834394314e-01 
3.600605647060e+01 3.641763575168e-01 
3.601205590019e+01 3.640694135637e-01 
3.996816627284e+01 3.190614934338e-01 
3.998415916024e+01 3.189208825477e-01 
4.000011408258e+01 3.187809067527e-01 
4.001211294120e+01 3.186758345571e-01 
4.002411180038e+01 3.185709264282e-01 
4.395224940925e+01 2.917651978906e-01 
4.397623874036e+01 2.916304791566e-01 
4.400017112387e+01 2.914963894314e-01 
4.401816941180e+01 2.913957489386e-01 
4.403616770057e+01 2.912952767373e-01 
4.793633254567e+01 2.730549745929e-01 
4.796831832048e+01 2.729263489439e-01 
4.800022816516e+01 2.727983349318e-01 
4.802422588241e+01 2.727022617426e-01 
4.804822360077e+01 2.726063552182e-01 
5.192041568209e+01 2.591052170498e-01 
5.196039790061e+01 2.589820753272e-01 
5.200028520645e+01 2.588595259926e-01 
5.203028235301e+01 2.587675584262e-01 
5.206027950096e+01 2.586757541066e-01 
 TITLE = "Profiles along polylines"
 VARIABLES = "DIST" "SATURATION1" 
 ZONE T="TIME=1.797693134862e+308"
1.692041568209e+01 1.000000000000e+00 
1.696039790061e+01 1.000000000000e+00 
1.700028520645e+01 1.000000000000e+00 
1.703028235301e+01 1.000000000000e+00 
1.706027950096e+01 1.000000000000e+00 
1.735640182602e+01 1.000000000000e+00 
1.739505130392e+01 1.000000000000e+00 
1.743360903290e+01 1.000000000000e+00 
1.746260627457e+01 1.000000000000e+00 
1.749160351759e+01 1.000000000000e+00 
1.779238796995e+01 1.000000000000e+00 
1.782970470723e+01 1.000000000000e+00 
1.786693285935e+01 1.000000000000e+00 
1.789493019614e+01 1.000000000000e+00 
1.792292753423e+01 1.000000000000e+00 
1.822837411388e+01 1.000000000000e+00 
1.826435811055e+01 1.000000000000e+00 
1.830025668581e+01 1.000000000000e+00 
1.832725411771e+01 1.000000000000e+00 
1.835425155086e+01 1.000000000000e+00 
1.866436025781e+01 1.000000000000e+00 
1.869901151386e+01 1.000000000000e+00 
1.873358051226e+01 1.000000000000e+00 
1.875957803927e+01 1.000000000000e+00 
1.878557556750e+01 1.000000000000e+00 
1.910034640174e+01 1.000000000000e+00 
1.913366491717e+01 1.000000000000e+00 
1.916690433871e+01 1.000000000000e+00 
1.919190196084e+01 1.000000000000e+00 
1.921689958413e+01 1.000000000000e+00 
1.953633254567e+01 1.000000000000e+00 
1.956831832048e+01 1.000000000000e+00 
1.960022816516e+01 1.000000000000e+00 
1.962422588241e+01 1.000000000000e+00 
1.964822360077e+01 1.000000000000e+00 
1.997231868960e+01 1.000000000000e+00 
2.000297172380e+01 1.000000000000e+00 
2.003355199161e+01 1.000000000000e+00 
2.005654980397e+01 1.000000000000e+00 
2.007954761740e+01 1.000000000000e+00 
2.040830483353e+01 1.000000000000e+00 
2.043762512711e+01 1.000000000000e+00 
2.046687581806e+01 1.000000000000e+00 
2.048887372554e+01 1.000000000000e+00 
2.051087163403e+01 1.000000000000e+00 
2.084429097746e+01 1.000000000000e+00 
2.087227853042e+01 1.000000000000e+00 
2.090019964451e+01 1.000000000000e+00 
2.092119764710e+01 1.000000000000e+00 
2.094219565067e+01 1.000000000000e+00 
2.128027712139e+01 1.000000000000e+00 
2.130693193374e+01 1.000000000000e+00 
2.133352347097e+01 1.000000000000e+00 
2.135352156867e+01 1.000000000000e+00 
2.137351966730e+01 1.000000000000e+00 
2.171626326532e+01 1.000000000000e+00 
2.174158533705e+01 1.000000000000e+00 
2.176684729742e+01 1.000000000000e+00 
2.178584549024e+01 1.000000000000e+00 
2.180484368394e+01 1.000000000000e+00 
2.215224940925e+01 1.000000000000e+00 
2.217623874036e+01 1.000000000000e+00 
2.220017112387e+01 1.000000000000e+00 
2.221816941180e+01 1.000000000000e+00 
2.223616770057e+01 1.000000000000e+00 
2.258823555318e+01 1.000000000000e+00 
2.261089214367e+01 1.000000000000e+00 
2.263349495032e+01 1.000000000000e+00 
2.265049333337e+01 1.000000000000e+00 
2.266749171721e+01 1.000000000000e+00 
2.302422169711e+01 1.000000000000e+00 
2.304554554699e+01 1.000000000000e+00 
2.306681877677e+01 1.000000000000e+00 
2.308281725493e+01 1.000000000000e+00 
2.309881573384e+01 1.000000000000e+00 
2.346020784104e+01 1.000000000000e+00 
2.348019895030e+01 1.000000000000e+00 
2.350014260322e+01 1.000000000000e+00 
2.351514117650e+01 1.000000000000e+00 
2.353013975047e+01 1.000000000000e+00 
2.389619398497e+01 1.000000000000e+00 
2.391485235361e+01 1.000000000000e+00 
2.393346642967e+01 1.000000000000e+00 
2.394746509807e+01 1.000000000000e+00 
2.396146376711e+01 1.000000000000e+00 
2.433218012890e+01 1.000000000000e+00 
2.434950575693e+01 1.000000000000e+00 
2.436679025612e+01 1.000000000000e+00 
2.437978901963e+01 1.000000000000e+00 
2.439278778374e+01 1.000000000000e+00 
2.476816627283e+01 1.000000000000e+00 
2.478415916024e+01 1.000000000000e+00 
2.480011408258e+01 1.000000000000e+00 
2.481211294120e+01 1.000000000000e+00 
2.482411180038e+01 1.000000000000e+00 
2.520415241676e+01 1.000000000000e+00 
2.521881256355e+01 1.000000000000e+00 
2.523343790903e+01 1.000000000000e+00 
2.524443686277e+01 1.000000000000e+00 
2.525543581701e+01 1.000000000000e+00 
2.564013856069e+01 1.000000000000e+00 
2.565346596687e+01 1.000000000000e+00 
2.566676173548e+01 1.000000000000e+00 
2.567676078433e+01 1.000000000000e+00 
2.568675983365e+01 1.000000000000e+00 
2.607612470462e+01 1.000000000000e+00 
2.608811937018e+01 1.000000000000e+00 
2.610008556193e+01 1.000000000000e+00 
2.610908470590e+01 1.000000000000e+00 
2.611808385028e+01 1.000000000000e+00 
2.651211084856e+01 1.000000000000e+00 
2.652277277349e+01 1.000000000000e+00 
2.653340938838e+01 1.000000000000e+00 
2.654140862747e+01 1.000000000000e+00 
2.654940786692e+01 1.000000000000e+00 
2.694809699249e+01 1.000000000000e+00 
2.695742617681e+01 1.000000000000e+00 
2.696673321484e+01 1.000000000000e+00 
2.697373254903e+01 1.000000000000e+00 
2.698073188355e+01 1.000000000000e+00 
2.738408313642e+01 1.000000000000e+00 
2.739207958012e+01 1.000000000000e+00 
2.740005704129e+01 1.000000000000e+00 
2.740605647060e+01 1.000000000000e+00 
2.741205590019e+01 1.000000000000e+00 
2.782006928035e+01 1.000000000000e+00 
2.782673298343e+01 1.000000000000e+00 
2.783338086774e+01 1.000000000000e+00 
2.783838039217e+01 1.000000000000e+00 
2.784337991682e+01 1.000000000000e+00 
2.825605542428e+01 1.000000000000e+00 
2.826138638675e+01 1.000000000000e+00 
2.826670469419e+01 1.000000000000e+00 
2.827070431373e+01 1.000000000000e+00 
2.827470393346e+01 1.000000000000e+00 
2.869204156821e+01 1.000000000000e+00 
2.869603979006e+01 1.000000000000e+00 
2.870002852064e+01 1.000000000000e+00 
2.870302823530e+01 1.000000000000e+00 
2.870602795009e+01 1.000000000000e+00 
2.912802771214e+01 1.000000000000e+00 
2.913069319337e+01 1.000000000000e+00 
2.913335234710e+01 1.000000000000e+00 
2.913535215687e+01 1.000000000000e+00 
2.913735196673e+01 1.000000000000e+00 
2.956401385607e+01 1.000000000000e+00 
2.956534659669e+01 1.000000000000e+00 
2.956667617355e+01 1.000000000000e+00 
2.956767607843e+01 1.000000000000e+00 
2.956867598337e+01 1.000000000000e+00 
3.000000000000e+01 1.000000000000e+00 
3.000000000000e+01 1.000000000000e+00 
3.000000000000e+01 1.000000000000e+00 
3.000000000000e+01 1.000000000000e+00 
3.000000000000e+01 1.000000000000e+00 
3.002500000000e+01 1.000000000000e+00 
3.002500000000e+01 1.000000000000e+00 
3.002500000000e+01 1.000000000000e+00 
3.002500000000e+01 1.000000000000e+00 
3.002500000000e+01 1.000000000000e+00 
3.005000000000e+01 1.000000000000e+00 
3.005000000000e+01 1.000000000000e+00 
3.005000000000e+01 1.000000000000e+00 
3.005000000000e+01 1.000000000000e+00 
3.005000000000e+01 1.000000000000e+00 
3.007500000000e+01 1.000000000000e+00 
3.007500000000e+01 1.000000000000e+00 
3.007500000000e+01 1.000000000000e+00 
3.007500000000e+01 1.000000000000e+00 
3.007500000000e+01 1.000000000000e+00 
3.010000000000e+01 1.000000000000e+00 
3.010000000000e+01 1.000000000000e+00 
3.010000000000e+01 1.000000000000e+00 
3.010000000000e+01 1.000000000000e+00 
3.010000000000e+01 1.000000000000e+00 
3.012500000000e+01 1.000000000000e+00 
3.012500000000e+01 1.000000000000e+00 
3.012500000000e+01 1.000000000000e+00 
3.012500000000e+01 1.000000000000e+00 
3.012500000000e+01 1.000000000000e+00 
3.015000000000e+01 1.000000000000e+00 
3.015000000000e+01 1.000000000000e+00 
3.015000000000e+01 1.000000000000e+00 