 TITLE = "Profiles along polylines"
 VARIABLES = "DIST" "SATURATION1" 
 ZONE T="TIME=0.000000000000e+00"
3.363402928000e+00 1.000000000000e+00 
3.383406023534e+00 1.000000000000e+00 
3.403409119068e+00 1.000000000000e+00 
3.423412214603e+00 1.000000000000e+00 
3.443415310137e+00 1.000000000000e+00 
4.251289497066e+00 1.000000000000e+00 
4.270625822749e+00 1.000000000000e+00 
4.289962148433e+00 1.000000000000e+00 
4.309298474116e+00 1.000000000000e+00 
4.328634799799e+00 1.000000000000e+00 
5.139176066132e+00 1.000000000000e+00 
5.157845621964e+00 1.000000000000e+00 
5.176515177797e+00 1.000000000000e+00 
5.195184733629e+00 1.000000000000e+00 
5.213854289461e+00 1.000000000000e+00 
6.027062635199e+00 1.000000000000e+00 
6.045065421180e+00 1.000000000000e+00 
6.063068207161e+00 1.000000000000e+00 
6.081070993142e+00 1.000000000000e+00 
6.099073779123e+00 1.000000000000e+00 
6.914949204266e+00 1.000000000000e+00 
6.932285220396e+00 1.000000000000e+00 
6.949621236526e+00 1.000000000000e+00 
6.966957252656e+00 1.000000000000e+00 
6.984293268785e+00 1.000000000000e+00 
7.802835773332e+00 1.000000000000e+00 
7.819505019611e+00 1.000000000000e+00 
7.836174265890e+00 1.000000000000e+00 
7.852843512168e+00 1.000000000000e+00 
7.869512758447e+00 1.000000000000e+00 
8.690722342398e+00 1.000000000000e+00 
8.706724818826e+00 1.000000000000e+00 
8.722727295253e+00 1.000000000000e+00 
8.738729771681e+00 1.000000000000e+00 
8.754732248108e+00 1.000000000000e+00 
9.578608911464e+00 1.000000000000e+00 
9.593944618041e+00 1.000000000000e+00 
9.609280324617e+00 1.000000000000e+00 
9.624616031193e+00 1.000000000000e+00 
9.639951737770e+00 1.000000000000e+00 
1.046649548053e+01 1.000000000000e+00 
1.048116441726e+01 1.000000000000e+00 
1.049583335398e+01 1.000000000000e+00 
1.051050229071e+01 1.000000000000e+00 
1.052517122743e+01 1.000000000000e+00 
1.135438204959e+01 1.000000000000e+00 
1.136838421647e+01 1.000000000000e+00 
1.138238638334e+01 1.000000000000e+00 
1.139638855022e+01 1.000000000000e+00 
1.141039071709e+01 1.000000000000e+00 
1.224226861866e+01 1.000000000000e+00 
1.225560401568e+01 1.000000000000e+00 
1.226893941270e+01 1.000000000000e+00 
1.228227480973e+01 1.000000000000e+00 
1.229561020675e+01 1.000000000000e+00 
1.313015518772e+01 1.000000000000e+00 
1.314282381489e+01 1.000000000000e+00 
1.315549244207e+01 1.000000000000e+00 
1.316816106924e+01 1.000000000000e+00 
1.318082969641e+01 1.000000000000e+00 
1.401804175679e+01 1.000000000000e+00 
1.403004361411e+01 1.000000000000e+00 
1.404204547143e+01 1.000000000000e+00 
1.405404732875e+01 1.000000000000e+00 
1.406604918607e+01 1.000000000000e+00 
1.490592832585e+01 1.000000000000e+00 
1.491726341332e+01 1.000000000000e+00 
1.492859850079e+01 1.000000000000e+00 
1.493993358826e+01 1.000000000000e+00 
1.495126867573e+01 1.000000000000e+00 
1.579381489491e+01 1.000000000000e+00 
1.580448321253e+01 1.000000000000e+00 
1.581515153015e+01 1.000000000000e+00 
1.582581984777e+01 1.000000000000e+00 
1.583648816539e+01 1.000000000000e+00 
1.668170146398e+01 1.000000000000e+00 
1.669170301175e+01 1.000000000000e+00 
1.670170455951e+01 1.000000000000e+00 
1.671170610728e+01 1.000000000000e+00 
1.672170765505e+01 1.000000000000e+00 
1.756958803305e+01 1.000000000000e+00 
1.757892281096e+01 1.000000000000e+00 
1.758825758888e+01 1.000000000000e+00 
1.759759236679e+01 1.000000000000e+00 
1.760692714471e+01 1.000000000000e+00 
1.845747460211e+01 1.000000000000e+00 
1.846614261018e+01 1.000000000000e+00 
1.847481061824e+01 1.000000000000e+00 
1.848347862631e+01 1.000000000000e+00 
1.849214663437e+01 1.000000000000e+00 
1.934536117118e+01 1.000000000000e+00 
1.935336240940e+01 1.000000000000e+00 
1.936136364761e+01 1.000000000000e+00 
1.936936488582e+01 1.000000000000e+00 
1.937736612404e+01 1.000000000000e+00 
2.023324774025e+01 1.000000000000e+00 
2.024058220861e+01 1.000000000000e+00 
2.024791667698e+01 1.000000000000e+00 
2.025525114534e+01 1.000000000000e+00 
2.026258561370e+01 1.000000000000e+00 
2.112113430932e+01 1.000000000000e+00 
2.112780200783e+01 1.000000000000e+00 
2.113446970634e+01 1.000000000000e+00 
2.114113740485e+01 1.000000000000e+00 
2.114780510336e+01 1.000000000000e+00 
2.200902087839e+01 1.000000000000e+00 
2.201502180705e+01 1.000000000000e+00 
2.202102273571e+01 1.000000000000e+00 
2.202702366437e+01 1.000000000000e+00 
2.203302459303e+01 1.000000000000e+00 
2.289690744745e+01 1.000000000000e+00 
2.290224160626e+01 1.000000000000e+00 
2.290757576507e+01 1.000000000000e+00 
2.291290992388e+01 1.000000000000e+00 
2.291824408269e+01 1.000000000000e+00 
2.378479401652e+01 1.000000000000e+00 
2.378946140548e+01 1.000000000000e+00 
2.379412879444e+01 1.000000000000e+00 
2.379879618340e+01 1.000000000000e+00 
2.380346357236e+01 1.000000000000e+00 
2.467268058559e+01 1.000000000000e+00 
2.467668120470e+01 1.000000000000e+00 
2.468068182380e+01 1.000000000000e+00 
2.468468244291e+01 1.000000000000e+00 
2.468868306202e+01 1.000000000000e+00 
2.556056715466e+01 1.000000000000e+00 
2.556390100391e+01 1.000000000000e+00 
2.556723485317e+01 1.000000000000e+00 
2.557056870243e+01 1.000000000000e+00 
2.557390255168e+01 1.000000000000e+00 
2.644845372373e+01 1.000000000000e+00 
2.645112080313e+01 1.000000000000e+00 
2.645378788254e+01 1.000000000000e+00 
2.645645496194e+01 1.000000000000e+00 
2.645912204135e+01 1.000000000000e+00 
2.733634029280e+01 1.000000000000e+00 
2.733834060235e+01 1.000000000000e+00 
2.734034091190e+01 1.000000000000e+00 
2.734234122146e+01 1.000000000000e+00 
2.734434153101e+01 1.000000000000e+00 
2.822422686186e+01 1.000000000000e+00 
2.822556040157e+01 1.000000000000e+00 
2.822689394127e+01 1.000000000000e+00 
2.822822748097e+01 1.000000000000e+00 
2.822956102067e+01 1.000000000000e+00 
2.911211343093e+01 1.000000000000e+00 
2.911278020078e+01 1.000000000000e+00 
2.911344697063e+01 1.000000000000e+00 
2.911411374049e+01 1.000000000000e+00 
2.911478051034e+01 1.000000000000e+00 
3.000000000000e+01 1.000000000000e+00 
3.000000000000e+01 1.000000000000e+00 
3.000000000000e+01 1.000000000000e+00 
3.000000000000e+01 1.000000000000e+00 
3.000000000000e+01 1.000000000000e+00 
3.002500000000e+01 9.876207709446e-01 
3.002500000000e+01 9.876207709446e-01 
3.002500000000e+01 9.876207709446e-01 
3.002500000000e+01 9.876207709446e-01 
3.002500000000e+01 9.876207709446e-01 
3.005000000000e+01 9.697756439369e-01 
3.005000000000e+01 9.697756439369e-01 
3.005000000000e+01 9.697756439369e-01 
3.005000000000e+01 9.697756439369e-01 
3.005000000000e+01 9.697756439369e-01 
3.007500000000e+01 9.507134089444e-01 
3.007500000000e+01 9.507134089444e-01 
3.007500000000e+01 9.507134089444e-01 
3.007500000000e+01 9.507134089444e-01 
3.007500000000e+01 9.507134089444e-01 
3.010000000000e+01 9.315621650298e-01 
3.010000000000e+01 9.315621650298e-01 
3.010000000000e+01 9.315621650298e-01 
3.010000000000e+01 9.315621650298e-01 
3.010000000000e+01 9.315621650298e-01 
3.012500000000e+01 9.128758324042e-01 
3.012500000000e+01 9.128758324042e-01 
3.012500000000e+01 9.128758324042e-01 
3.012500000000e+01 9.128758324042e-01 
3.012500000000e+01 9.128758324042e-01 
3.015000000000e+01 8.949248043380e-01 
3.015000000000e+01 8.949248043380e-01 
3.015000000000e+01 8.949248043380e-01 
3.015000000000e+01 8.949248043380e-01 
3.015000000000e+01 8.949248043380e-01 
3.017500000000e+01 8.778290027968e-01 
3.017500000000e+01 8.778290027968e-01 
3.017500000000e+01 8.778290027968e-01 
3.017500000000e+01 8.778290027968e-01 
3.017500000000e+01 8.778290027968e-01 
3.020000000000e+01 8.616255702900e-01 
3.020000000000e+01 8.616255702900e-01 
3.020000000000e+01 8.616255702900e-01 
3.020000000000e+01 8.616255702900e-01 
3.020000000000e+01 8.616255702900e-01 
3.022500000000e+01 8.463059583920e-01 
3.022500000000e+01 8.463059583920e-01 
3.022500000000e+01 8.463059583920e-01 
3.022500000000e+01 8.463059583920e-01 
3.022500000000e+01 8.463059583920e-01 
3.025000000000e+01 8.318370344398e-01 
3.025000000000e+01 8.318370344398e-01 
3.025000000000e+01 8.318370344398e-01 
3.025000000000e+01 8.318370344398e-01 
3.025000000000e+01 8.318370344398e-01 
3.027500000000e+01 8.181733156316e-01 
3.027500000000e+01 8.181733156316e-01 
3.027500000000e+01 8.181733156316e-01 
3.027500000000e+01 8.181733156316e-01 
3.027500000000e+01 8.181733156316e-01 
3.030000000000e+01 8.052640970350e-01 
3.030000000000e+01 8.052640970350e-01 
3.030000000000e+01 8.052640970350e-01 
3.030000000000e+01 8.052640970350e-01 
3.030000000000e+01 8.052640970350e-01 
3.032500000000e+01 7.930575753856e-01 
3.032500000000e+01 7.930575753856e-01 
3.032500000000e+01 7.930575753856e-01 
3.032500000000e+01 7.930575753856e-01 
3.032500000000e+01 7.930575753856e-01 
3.035000000000e+01 7.815031815402e-01 
3.035000000000e+01 7.815031815402e-01 
3.035000000000e+01 7.815031815402e-01 
3.035000000000e+01 7.815031815402e-01 
3.035000000000e+01 7.815031815402e-01 
3.037500000000e+01 7.705528376764e-01 
3.037500000000e+01 7.705528376764e-01 
3.037500000000e+01 7.705528376764e-01 
3.037500000000e+01 7.705528376764e-01 
3.037500000000e+01 7.705528376764e-01 
3.040000000000e+01 7.601615689674e-01 
3.040000000000e+01 7.601615689674e-01 
3.040000000000e+01 7.601615689674e-01 
3.040000000000e+01 7.601615689674e-01 
3.040000000000e+01 7.601615689674e-01 
3.042500000000e+01 7.502877306002e-01 
3.042500000000e+01 7.502877306002e-01 
3.042500000000e+01 7.502877306002e-01 
3.042500000000e+01 7.502877306002e-01 
3.042500000000e+01 7.502877306002e-01 
3.045000000000e+01 7.408930096824e-01 
3.045000000000e+01 7.408930096824e-01 
3.045000000000e+01 7.408930096824e-01 
3.045000000000e+01 7.408930096824e-01 
3.045000000000e+01 7.408930096824e-01 
3.047500000000e+01 7.319422999608e-01 
3.047500000000e+01 7.319422999608e-01 
3.047500000000e+01 7.319422999608e-01 
3.047500000000e+01 7.319422999608e-01 
3.047500000000e+01 7.319422999608e-01 
3.050000000000e+01 7.234035093991e-01 
3.050000000000e+01 7.234035093991e-01 
3.050000000000e+01 7.234035093991e-01 
3.050000000000e+01 7.234035093991e-01 
3.050000000000e+01 7.234035093991e-01 
3.052500000000e+01 7.152473371957e-01 
3.052500000000e+01 7.152473371957e-01 
3.052500000000e+01 7.152473371957e-01 
3.052500000000e+01 7.152473371957e-01 
3.052500000000e+01 7.152473371957e-01 
3.055000000000e+01 7.074470422112e-01 
3.055000000000e+01 7.074470422112e-01 
3.055000000000e+01 7.074470422112e-01 
3.055000000000e+01 7.074470422112e-01 
3.055000000000e+01 7.074470422112e-01 
3.057500000000e+01 6.999782156504e-01 
3.057500000000e+01 6.999782156504e-01 
3.057500000000e+01 6.999782156504e-01 
3.057500000000e+01 6.999782156504e-01 
3.057500000000e+01 6.999782156504e-01 
3.060000000000e+01 6.928185651596e-01 
3.060000000000e+01 6.928185651596e-01 
3.060000000000e+01 6.928185651596e-01 
3.060000000000e+01 6.928185651596e-01 
3.060000000000e+01 6.928185651596e-01 
3.062500000000e+01 6.859477139679e-01 
3.062500000000e+01 6.859477139679e-01 
3.062500000000e+01 6.859477139679e-01 
3.062500000000e+01 6.859477139679e-01 
3.062500000000e+01 6.859477139679e-01 
3.065000000000e+01 6.793470165436e-01 
3.065000000000e+01 6.793470165436e-01 
3.065000000000e+01 6.793470165436e-01 
3.065000000000e+01 6.793470165436e-01 
3.065000000000e+01 6.793470165436e-01 
3.067500000000e+01 6.729993909360e-01 
3.067500000000e+01 6.729993909360e-01 
3.067500000000e+01 6.729993909360e-01 
3.067500000000e+01 6.729993909360e-01 
3.067500000000e+01 6.729993909360e-01 
3.070000000000e+01 6.668891672206e-01 
3.070000000000e+01 6.668891672206e-01 
3.070000000000e+01 6.668891672206e-01 
3.070000000000e+01 6.668891672206e-01 
3.070000000000e+01 6.668891672206e-01 
3.072500000000e+01 6.610019510587e-01 
3.072500000000e+01 6.610019510587e-01 
3.072500000000e+01 6.610019510587e-01 
3.072500000000e+01 6.610019510587e-01 
3.072500000000e+01 6.610019510587e-01 
3.075000000000e+01 6.553245011865e-01 
3.075000000000e+01 6.553245011865e-01 
3.075000000000e+01 6.553245011865e-01 
3.075000000000e+01 6.553245011865e-01 
3.075000000000e+01 6.553245011865e-01 
3.077500000000e+01 6.498446195878e-01 
3.077500000000e+01 6.498446195878e-01 
3.077500000000e+01 6.498446195878e-01 
3.077500000000e+01 6.498446195878e-01 
3.077500000000e+01 6.498446195878e-01 
3.080000000000e+01 6.445510531188e-01 
3.080000000000e+01 6.445510531188e-01 
3.080000000000e+01 6.445510531188e-01 
3.080000000000e+01 6.445510531188e-01 
3.080000000000e+01 6.445510531188e-01 
3.082500000000e+01 6.394334054150e-01 
3.082500000000e+01 6.394334054150e-01 
3.082500000000e+01 6.394334054150e-01 
3.082500000000e+01 6.394334054150e-01 
3.082500000000e+01 6.394334054150e-01 
3.085000000000e+01 6.344820579917e-01 
3.085000000000e+01 6.344820579917e-01 
3.085000000000e+01 6.344820579917e-01 
3.085000000000e+01 6.344820579917e-01 
3.085000000000e+01 6.344820579917e-01 
3.087500000000e+01 6.296880995462e-01 
3.087500000000e+01 6.296880995462e-01 
3.087500000000e+01 6.296880995462e-01 
3.087500000000e+01 6.296880995462e-01 
3.087500000000e+01 6.296880995462e-01 
3.090000000000e+01 6.250432625624e-01 
3.090000000000e+01 6.250432625624e-01 
3.090000000000e+01 6.250432625624e-01 
3.090000000000e+01 6.250432625624e-01 
3.090000000000e+01 6.250432625624e-01 
3.092500000000e+01 6.205398664126e-01 
3.092500000000e+01 6.205398664126e-01 
3.092500000000e+01 6.205398664126e-01 
3.092500000000e+01 6.205398664126e-01 
3.092500000000e+01 6.205398664126e-01 
3.095000000000e+01 6.161707662369e-01 
3.095000000000e+01 6.161707662369e-01 
3.095000000000e+01 6.161707662369e-01 
3.095000000000e+01 6.161707662369e-01 
3.095000000000e+01 6.161707662369e-01 
3.097500000000e+01 6.119293069613e-01 
3.097500000000e+01 6.119293069613e-01 
3.097500000000e+01 6.119293069613e-01 
3.097500000000e+01 6.119293069613e-01 
3.097500000000e+01 6.119293069613e-01 
3.100000000000e+01 6.078092818871e-01 
3.100000000000e+01 6.078092818871e-01 
3.100000000000e+01 6.078092818871e-01 
3.100000000000e+01 6.078092818871e-01 
3.100000000000e+01 6.078092818871e-01 
3.102500000000e+01 6.038048953494e-01 
3.102500000000e+01 6.038048953494e-01 
3.102500000000e+01 6.038048953494e-01 
3.102500000000e+01 6.038048953494e-01 
3.102500000000e+01 6.038048953494e-01 
3.105000000000e+01 5.999107290013e-01 
3.105000000000e+01 5.999107290013e-01 
3.105000000000e+01 5.999107290013e-01 
3.105000000000e+01 5.999107290013e-01 
3.105000000000e+01 5.999107290013e-01 
3.107500000000e+01 5.961217113309e-01 
3.107500000000e+01 5.961217113309e-01 
3.107500000000e+01 5.961217113309e-01 
3.107500000000e+01 5.961217113309e-01 
3.107500000000e+01 5.961217113309e-01 
3.110000000000e+01 5.924330900627e-01 
3.110000000000e+01 5.924330900627e-01 
3.110000000000e+01 5.924330900627e-01 
3.110000000000e+01 5.924330900627e-01 
3.110000000000e+01 5.924330900627e-01 
3.112500000000e+01 5.888404071392e-01 
3.112500000000e+01 5.888404071392e-01 
3.112500000000e+01 5.888404071392e-01 
3.112500000000e+01 5.888404071392e-01 
3.112500000000e+01 5.888404071392e-01 
3.115000000000e+01 5.853394760078e-01 
3.115000000000e+01 5.853394760078e-01 
3.115000000000e+01 5.853394760078e-01 
3.115000000000e+01 5.853394760078e-01 
3.115000000000e+01 5.853394760078e-01 
3.117500000000e+01 5.819263609758e-01 
3.117500000000e+01 5.819263609758e-01 
3.117500000000e+01 5.819263609758e-01 
3.117500000000e+01 5.819263609758e-01 
3.117500000000e+01 5.819263609758e-01 
3.120000000000e+01 5.785973584173e-01 
3.120000000000e+01 5.785973584173e-01 
3.120000000000e+01 5.785973584173e-01 
3.120000000000e+01 5.785973584173e-01 
3.120000000000e+01 5.785973584173e-01 
3.122500000000e+01 5.753489796460e-01 
3.122500000000e+01 5.753489796460e-01 
3.122500000000e+01 5.753489796460e-01 
3.122500000000e+01 5.753489796460e-01 
3.122500000000e+01 5.753489796460e-01 
3.125000000000e+01 5.721779352840e-01 
3.125000000000e+01 5.721779352840e-01 
3.125000000000e+01 5.721779352840e-01 
3.125000000000e+01 5.721779352840e-01 
3.125000000000e+01 5.721779352840e-01 
3.127500000000e+01 5.690811209785e-01 
3.127500000000e+01 5.690811209785e-01 
3.127500000000e+01 5.690811209785e-01 
3.127500000000e+01 5.690811209785e-01 
3.127500000000e+01 5.690811209785e-01 
3.130000000000e+01 5.660556043336e-01 
3.130000000000e+01 5.660556043336e-01 
3.130000000000e+01 5.660556043336e-01 
3.130000000000e+01 5.660556043336e-01 
3.130000000000e+01 5.660556043336e-01 
3.132500000000e+01 5.630986129391e-01 
3.132500000000e+01 5.630986129391e-01 
3.132500000000e+01 5.630986129391e-01 
3.132500000000e+01 5.630986129391e-01 
3.132500000000e+01 5.630986129391e-01 
3.135000000000e+01 5.602075233904e-01 
3.135000000000e+01 5.602075233904e-01 
3.135000000000e+01 5.602075233904e-01 
3.135000000000e+01 5.602075233904e-01 
3.135000000000e+01 5.602075233904e-01 
3.137500000000e+01 5.573798512060e-01 
3.137500000000e+01 5.573798512060e-01 
3.137500000000e+01 5.573798512060e-01 
3.137500000000e+01 5.573798512060e-01 
3.137500000000e+01 5.573798512060e-01 
3.140000000000e+01 5.546132415581e-01 
3.140000000000e+01 5.546132415581e-01 
3.140000000000e+01 5.546132415581e-01 
3.140000000000e+01 5.546132415581e-01 
3.140000000000e+01 5.546132415581e-01 
3.142500000000e+01 5.519054607414e-01 
3.142500000000e+01 5.519054607414e-01 
3.142500000000e+01 5.519054607414e-01 
3.142500000000e+01 5.519054607414e-01 
3.142500000000e+01 5.519054607414e-01 
3.145000000000e+01 5.492543883110e-01 
3.145000000000e+01 5.492543883110e-01 
3.145000000000e+01 5.492543883110e-01 
3.145000000000e+01 5.492543883110e-01 
3.145000000000e+01 5.492543883110e-01 
3.147500000000e+01 5.466580098318e-01 
3.147500000000e+01 5.466580098318e-01 
3.147500000000e+01 5.466580098318e-01 
3.147500000000e+01 5.466580098318e-01 
3.147500000000e+01 5.466580098318e-01 
3.150000000000e+01 5.441144101810e-01 
3.150000000000e+01 5.441144101810e-01 
3.150000000000e+01 5.441144101810e-01 
3.150000000000e+01 5.441144101810e-01 
3.150000000000e+01 5.441144101810e-01 
3.152500000000e+01 5.416217673588e-01 
3.152500000000e+01 5.416217673588e-01 
3.152500000000e+01 5.416217673588e-01 
3.152500000000e+01 5.416217673588e-01 
3.152500000000e+01 5.416217673588e-01 
3.155000000000e+01 5.391783467591e-01 
3.155000000000e+01 5.391783467591e-01 
3.155000000000e+01 5.391783467591e-01 
3.155000000000e+01 5.391783467591e-01 
3.155000000000e+01 5.391783467591e-01 
3.157500000000e+01 5.367824958643e-01 
3.157500000000e+01 5.367824958643e-01 
3.157500000000e+01 5.367824958643e-01 
3.157500000000e+01 5.367824958643e-01 
3.157500000000e+01 5.367824958643e-01 
3.160000000000e+01 5.344326393247e-01 
3.160000000000e+01 5.344326393247e-01 
3.160000000000e+01 5.344326393247e-01 
3.160000000000e+01 5.344326393247e-01 
3.160000000000e+01 5.344326393247e-01 
3.162500000000e+01 5.321272743928e-01 
3.162500000000e+01 5.321272743928e-01 
3.162500000000e+01 5.321272743928e-01 
3.162500000000e+01 5.321272743928e-01 
3.162500000000e+01 5.321272743928e-01 
3.165000000000e+01 5.298649666811e-01 
3.165000000000e+01 5.298649666811e-01 
3.165000000000e+01 5.298649666811e-01 
3.165000000000e+01 5.298649666811e-01 
3.165000000000e+01 5.298649666811e-01 
3.167500000000e+01 5.276443462180e-01 
3.167500000000e+01 5.276443462180e-01 
3.167500000000e+01 5.276443462180e-01 
3.167500000000e+01 5.276443462180e-01 
3.167500000000e+01 5.276443462180e-01 
3.170000000000e+01 5.254641037767e-01 
3.170000000000e+01 5.254641037767e-01 
3.170000000000e+01 5.254641037767e-01 
3.170000000000e+01 5.254641037767e-01 
3.170000000000e+01 5.254641037767e-01 
3.172500000000e+01 5.233229874560e-01 
3.172500000000e+01 5.233229874560e-01 
3.172500000000e+01 5.233229874560e-01 
3.172500000000e+01 5.233229874560e-01 
3.172500000000e+01 5.233229874560e-01 
3.175000000000e+01 5.212197994921e-01 
3.175000000000e+01 5.212197994921e-01 
3.175000000000e+01 5.212197994921e-01 
3.175000000000e+01 5.212197994921e-01 
3.175000000000e+01 5.212197994921e-01 
3.177500000000e+01 5.191533932842e-01 
3.177500000000e+01 5.191533932842e-01 
3.177500000000e+01 5.191533932842e-01 
3.177500000000e+01 5.191533932842e-01 
3.177500000000e+01 5.191533932842e-01 
3.180000000000e+01 5.171226706164e-01 
3.180000000000e+01 5.171226706164e-01 
3.180000000000e+01 5.171226706164e-01 
3.180000000000e+01 5.171226706164e-01 
3.180000000000e+01 5.171226706164e-01 
3.182500000000e+01 5.151265790614e-01 
3.182500000000e+01 5.151265790614e-01 
3.182500000000e+01 5.151265790614e-01 
3.182500000000e+01 5.151265790614e-01 
3.182500000000e+01 5.151265790614e-01 
3.185000000000e+01 5.131641095520e-01 
3.185000000000e+01 5.131641095520e-01 
3.185000000000e+01 5.131641095520e-01 
3.185000000000e+01 5.131641095520e-01 
3.185000000000e+01 5.131641095520e-01 
3.187500000000e+01 5.112342941078e-01 
3.187500000000e+01 5.112342941078e-01 
3.187500000000e+01 5.112342941078e-01 
3.187500000000e+01 5.112342941078e-01 
3.187500000000e+01 5.112342941078e-01 
3.190000000000e+01 5.093362037054e-01 
3.190000000000e+01 5.093362037054e-01 
3.190000000000e+01 5.093362037054e-01 
3.190000000000e+01 5.093362037054e-01 
3.190000000000e+01 5.093362037054e-01 
3.192500000000e+01 5.074689462822e-01 
3.192500000000e+01 5.074689462822e-01 
3.192500000000e+01 5.074689462822e-01 
3.192500000000e+01 5.074689462822e-01 
3.192500000000e+01 5.074689462822e-01 
3.195000000000e+01 5.056316648631e-01 
3.195000000000e+01 5.056316648631e-01 
3.195000000000e+01 5.056316648631e-01 
3.195000000000e+01 5.056316648631e-01 
3.195000000000e+01 5.056316648631e-01 
3.197500000000e+01 5.038235358020e-01 
3.197500000000e+01 5.038235358020e-01 
3.197500000000e+01 5.038235358020e-01 
3.197500000000e+01 5.038235358020e-01 
3.197500000000e+01 5.038235358020e-01 
3.200000000000e+01 5.008026011079e-01 
3.200000000000e+01 5.008154503918e-01 
3.200000000000e+01 5.008218591789e-01 
3.200000000000e+01 5.008090310228e-01 
3.200000000000e+01 5.008282573481e-01 
3.327268058560e+01 4.355127251043e-01 
3.327668120471e+01 4.353566669291e-01 
3.328068182381e+01 4.352008480058e-01 
3.328468244292e+01 4.350452677100e-01 
3.328868306203e+01 4.348899254199e-01 
3.454536117120e+01 3.975334140641e-01 
3.455336240941e+01 3.973349078756e-01 
3.456136364763e+01 3.971368573457e-01 
3.456936488584e+01 3.969392606629e-01 
3.457736612405e+01 3.967421160258e-01 
3.581804175680e+01 3.711543902947e-01 
3.583004361412e+01 3.709399061583e-01 
3.584204547144e+01 3.707260019406e-01 
3.585404732876e+01 3.705126749136e-01 
3.586604918608e+01 3.702999223676e-01 
3.709072234240e+01 3.513599161770e-01 
3.710672481883e+01 3.511397929630e-01 
3.712272729525e+01 3.509203225317e-01 
3.713872977168e+01 3.507015015105e-01 
3.715473224811e+01 3.504833265520e-01 
3.836340292800e+01 3.357188324787e-01 
3.838340602353e+01 3.354976338673e-01 
3.840340911907e+01 3.352771316937e-01 
3.842341221460e+01 3.350573221360e-01 
3.844341531014e+01 3.348382014027e-01 
 TITLE = "Profiles along polylines"
 VARIABLES = "DIST" "SATURATION1" 
 ZONE T="TIME=1.797693134862e+308"
3.363402928000e+00 1.000000000000e+00 
3.383406023534e+00 1.000000000000e+00 
3.403409119068e+00 1.000000000000e+00 
3.423412214603e+00 1.000000000000e+00 
3.443415310137e+00 1.000000000000e+00 
4.251289497066e+00 1.000000000000e+00 
4.270625822749e+00 1.000000000000e+00 
4.289962148433e+00 1.000000000000e+00 
4.309298474116e+00 1.000000000000e+00 
4.328634799799e+00 1.000000000000e+00 
5.139176066132e+00 1.000000000000e+00 
5.157845621964e+00 1.000000000000e+00 
5.176515177797e+00 1.000000000000e+00 
5.195184733629e+00 1.000000000000e+00 
5.213854289461e+00 1.000000000000e+00 
6.027062635199e+00 1.000000000000e+00 
6.045065421180e+00 1.000000000000e+00 
6.063068207161e+00 1.000000000000e+00 
6.081070993142e+00 1.000000000000e+00 
6.099073779123e+00 1.000000000000e+00 
6.914949204266e+00 1.000000000000e+00 
6.932285220396e+00 1.000000000000e+00 
6.949621236526e+00 1.000000000000e+00 
6.966957252656e+00 1.000000000000e+00 
6.984293268785e+00 1.000000000000e+00 
7.802835773332e+00 1.000000000000e+00 
7.819505019611e+00 1.000000000000e+00 
7.836174265890e+00 1.000000000000e+00 
7.852843512168e+00 1.000000000000e+00 
7.869512758447e+00 1.000000000000e+00 
8.690722342398e+00 1.000000000000e+00 
8.706724818826e+00 1.000000000000e+00 
8.722727295253e+00 1.000000000000e+00 
8.738729771681e+00 1.000000000000e+00 
8.754732248108e+00 1.000000000000e+00 
9.578608911464e+00 1.000000000000e+00 
9.593944618041e+00 1.000000000000e+00 
9.609280324617e+00 1.000000000000e+00 
9.624616031193e+00 1.000000000000e+00 
9.639951737770e+00 1.000000000000e+00 
1.046649548053e+01 1.000000000000e+00 
1.048116441726e+01 1.000000000000e+00 
1.049583335398e+01 1.000000000000e+00 
1.051050229071e+01 1.000000000000e+00 
1.052517122743e+01 1.000000000000e+00 
1.135438204959e+01 1.000000000000e+00 
1.136838421647e+01 1.000000000000e+00 
1.138238638334e+01 1.000000000000e+00 
1.139638855022e+01 1.000000000000e+00 
1.141039071709e+01 1.000000000000e+00 
1.224226861866e+01 1.000000000000e+00 
1.225560401568e+01 1.000000000000e+00 
1.226893941270e+01 1.000000000000e+00 
1.228227480973e+01 1.000000000000e+00 
1.229561020675e+01 1.000000000000e+00 
1.313015518772e+01 1.000000000000e+00 
1.314282381489e+01 1.000000000000e+00 
1.315549244207e+01 1.000000000000e+00 
1.316816106924e+01 1.000000000000e+00 
1.318082969641e+01 1.000000000000e+00 
1.401804175679e+01 1.000000000000e+00 
1.403004361411e+01 1.000000000000e+00 
1.404204547143e+01 1.000000000000e+00 
1.405404732875e+01 1.000000000000e+00 
1.406604918607e+01 1.000000000000e+00 
1.490592832585e+01 1.000000000000e+00 
1.491726341332e+01 1.000000000000e+00 
1.492859850079e+01 1.000000000000e+00 
1.493993358826e+01 1.000000000000e+00 
1.495126867573e+01 1.000000000000e+00 
1.579381489491e+01 1.000000000000e+00 
1.580448321253e+01 1.000000000000e+00 
1.581515153015e+01 1.000000000000e+00 
1.582581984777e+01 1.000000000000e+00 
1.583648816539e+01 1.000000000000e+00 
1.668170146398e+01 1.000000000000e+00 
1.669170301175e+01 1.000000000000e+00 
1.670170455951e+01 1.000000000000e+00 
1.671170610728e+01 1.000000000000e+00 
1.672170765505e+01 1.000000000000e+00 
1.756958803305e+01 1.000000000000e+00 
1.757892281096e+01 1.000000000000e+00 
1.758825758888e+01 1.000000000000e+00 
1.759759236679e+01 1.000000000000e+00 
1.760692714471e+01 1.000000000000e+00 
1.845747460211e+01 1.000000000000e+00 
1.846614261018e+01 1.000000000000e+00 
1.847481061824e+01 1.000000000000e+00 
1.848347862631e+01 1.000000000000e+00 
1.849214663437e+01 1.000000000000e+00 
1.934536117118e+01 1.000000000000e+00 
1.935336240940e+01 1.000000000000e+00 
1.936136364761e+01 1.000000000000e+00 
1.936936488582e+01 1.000000000000e+00 
1.937736612404e+01 1.000000000000e+00 
2.023324774025e+01 1.000000000000e+00 
2.024058220861e+01 1.000000000000e+00 
2.024791667698e+01 1.000000000000e+00 
2.025525114534e+01 1.000000000000e+00 
2.026258561370e+01 1.000000000000e+00 
2.112113430932e+01 1.000000000000e+00 
2.112780200783e+01 1.000000000000e+00 
2.113446970634e+01 1.000000000000e+00 
2.114113740485e+01 1.000000000000e+00 
2.114780510336e+01 1.000000000000e+00 
2.200902087839e+01 1.000000000000e+00 
2.201502180705e+01 1.000000000000e+00 
2.202102273571e+01 1.000000000000e+00 
2.202702366437e+01 1.000000000000e+00 
2.203302459303e+01 1.000000000000e+00 
2.289690744745e+01 1.000000000000e+00 
2.290224160626e+01 1.000000000000e+00 
2.290757576507e+01 1.000000000000e+00 
2.291290992388e+01 1.000000000000e+00 
2.291824408269e+01 1.000000000000e+00 
2.378479401652e+01 1.000000000000e+00 
2.378946140548e+01 1.000000000000e+00 
2.379412879444e+01 1.000000000000e+00 
2.379879618340e+01 1.000000000000e+00 
2.380346357236e+01 1.000000000000e+00 
2.467268058559e+01 1.000000000000e+00 
2.467668120470e+01 1.000000000000e+00 
2.468068182380e+01 1.000000000000e+00 
2.468468244291e+01 1.000000000000e+00 
2.468868306202e+01 1.000000000000e+00 
2.556056715466e+01 1.000000000000e+00 
2.556390100391e+01 1.000000000000e+00 
2.556723485317e+01 1.000000000000e+00 
2.557056870243e+01 1.000000000000e+00 
2.557390255168e+01 1.000000000000e+00 
2.644845372373e+01 1.000000000000e+00 
2.645112080313e+01 1.000000000000e+00 
2.645378788254e+01 1.000000000000e+00 
2.645645496194e+01 1.000000000000e+00 
2.645912204135e+01 1.000000000000e+00 
2.733634029280e+01 1.000000000000e+00 
2.733834060235e+01 1.000000000000e+00 
2.734034091190e+01 1.000000000000e+00 
2.734234122146e+01 1.000000000000e+00 
2.734434153101e+01 1.000000000000e+00 
2.822422686186e+01 1.000000000000e+00 
2.822556040157e+01 1.000000000000e+00 
2.822689394127e+01 1.000000000000e+00 
2.822822748097e+01 1.000000000000e+00 
2.822956102067e+01 1.000000000000e+00 
2.911211343093e+01 1.000000000000e+00 
2.911278020078e+01 1.000000000000e+00 
2.911344697063e+01 1.000000000000e+00 
2.911411374049e+01 1.000000000000e+00 
2.911478051034e+01 1.000000000000e+00 
3.000000000000e+01 1.000000000000e+00 
3.000000000000e+01 1.000000000000e+00 
3.000000000000e+01 1.000000000000e+00 
3.000000000000e+01 1.000000000000e+00 
3.000000000000e+01 1.000000000000e+00 
3.002500000000e+01 1.000000000000e+00 
3.002500000000e+01 1.000000000000e+00 
3.002500000000e+01 1.000000000000e+00 
3.002500000000e+01 1.000000000000e+00 
3.002500000000e+01 1.000000000000e+00 
3.005000000000e+01 1.000000000000e+00 
3.005000000000e+01 1.000000000000e+00 
3.005000000000e+01 1.000000000000e+00 
3.005000000000e+01 1.000000000000e+00 
3.005000000000e+01 1.000000000000e+00 
3.007500000000e+01 1.000000000000e+00 
3.007500000000e+01 1.000000000000e+00 
3.007500000000e+01 1.000000000000e+00 
3.007500000000e+01 1.000000000000e+00 
3.007500000000e+01 1.000000000000e+00 
3.010000000000e+01 1.000000000000e+00 
3.010000000000e+01 1.000000000000e+00 
3.010000000000e+01 1.000000000000e+00 
3.010000000000e+01 1.000000000000e+00 
3.010000000000e+01 1.000000000000e+00 
3.012500000000e+01 1.000000000000e+00 
3.012500000000e+01 1.000000000000e+00 
3.012500000000e+01 1.000000000000e+00 
3.012500000000e+01 1.000000000000e+00 
3.012500000000e+01 1.000000000000e+00 
3.015000000000e+01 1.000000000000e+00 
3.015000000000e+01 1.000000000000e+00 
3.015000000000e+01 1.000000000000e+00 