 TITLE = "Profiles along polylines"
 VARIABLES = "DIST" "SATURATION1" 
 ZONE T="TIME=0.000000000000e+00"
9.903388606393e-01 1.000000000000e+00 
9.953405720567e-01 1.000000000000e+00 
1.000342283474e+00 1.000000000000e+00 
1.005343994891e+00 1.000000000000e+00 
1.010345706309e+00 1.000000000000e+00 
1.957327565284e+00 1.000000000000e+00 
1.962162552988e+00 1.000000000000e+00 
1.966997540691e+00 1.000000000000e+00 
1.971832528395e+00 1.000000000000e+00 
1.976667516098e+00 1.000000000000e+00 
2.924316269929e+00 1.000000000000e+00 
2.928984533919e+00 1.000000000000e+00 
2.933652797908e+00 1.000000000000e+00 
2.938321061898e+00 1.000000000000e+00 
2.942989325887e+00 1.000000000000e+00 
3.891304974575e+00 1.000000000000e+00 
3.895806514851e+00 1.000000000000e+00 
3.900308055126e+00 1.000000000000e+00 
3.904809595402e+00 1.000000000000e+00 
3.909311135678e+00 1.000000000000e+00 
4.858293679220e+00 1.000000000000e+00 
4.862628495782e+00 1.000000000000e+00 
4.866963312344e+00 1.000000000000e+00 
4.871298128906e+00 1.000000000000e+00 
4.875632945467e+00 1.000000000000e+00 
5.825282383865e+00 1.000000000000e+00 
5.829450476713e+00 1.000000000000e+00 
5.833618569561e+00 1.000000000000e+00 
5.837786662409e+00 1.000000000000e+00 
5.841954755256e+00 1.000000000000e+00 
6.792271088510e+00 1.000000000000e+00 
6.796272457643e+00 1.000000000000e+00 
6.800273826777e+00 1.000000000000e+00 
6.804275195911e+00 1.000000000000e+00 
6.808276565045e+00 1.000000000000e+00 
7.759259793154e+00 1.000000000000e+00 
7.763094438574e+00 1.000000000000e+00 
7.766929083994e+00 1.000000000000e+00 
7.770763729414e+00 1.000000000000e+00 
7.774598374834e+00 1.000000000000e+00 
8.726248497799e+00 1.000000000000e+00 
8.729916419505e+00 1.000000000000e+00 
8.733584341211e+00 1.000000000000e+00 
8.737252262917e+00 1.000000000000e+00 
8.740920184623e+00 1.000000000000e+00 
9.693237202441e+00 1.000000000000e+00 
9.696738400433e+00 1.000000000000e+00 
9.700239598425e+00 1.000000000000e+00 
9.703740796417e+00 1.000000000000e+00 
9.707241994409e+00 1.000000000000e+00 
1.066022590708e+01 1.000000000000e+00 
1.066356038136e+01 1.000000000000e+00 
1.066689485564e+01 1.000000000000e+00 
1.067022932992e+01 1.000000000000e+00 
1.067356380420e+01 1.000000000000e+00 
1.162721461172e+01 1.000000000000e+00 
1.163038236229e+01 1.000000000000e+00 
1.163355011285e+01 1.000000000000e+00 
1.163671786342e+01 1.000000000000e+00 
1.163988561398e+01 1.000000000000e+00 
1.259420331637e+01 1.000000000000e+00 
1.259720434322e+01 1.000000000000e+00 
1.260020537007e+01 1.000000000000e+00 
1.260320639692e+01 1.000000000000e+00 
1.260620742377e+01 1.000000000000e+00 
1.356119202101e+01 1.000000000000e+00 
1.356402632414e+01 1.000000000000e+00 
1.356686062728e+01 1.000000000000e+00 
1.356969493042e+01 1.000000000000e+00 
1.357252923355e+01 1.000000000000e+00 
1.452818072565e+01 1.000000000000e+00 
1.453084830507e+01 1.000000000000e+00 
1.453351588450e+01 1.000000000000e+00 
1.453618346392e+01 1.000000000000e+00 
1.453885104334e+01 1.000000000000e+00 
1.549516943029e+01 1.000000000000e+00 
1.549767028600e+01 1.000000000000e+00 
1.550017114171e+01 1.000000000000e+00 
1.550267199742e+01 1.000000000000e+00 
1.550517285313e+01 1.000000000000e+00 
1.646215813494e+01 1.000000000000e+00 
1.646449226693e+01 1.000000000000e+00 
1.646682639893e+01 1.000000000000e+00 
1.646916053092e+01 1.000000000000e+00 
1.647149466292e+01 1.000000000000e+00 
1.742914683959e+01 1.000000000000e+00 
1.743131424787e+01 1.000000000000e+00 
1.743348165615e+01 1.000000000000e+00 
1.743564906443e+01 1.000000000000e+00 
1.743781647271e+01 1.000000000000e+00 
1.839613554423e+01 1.000000000000e+00 
1.839813622880e+01 1.000000000000e+00 
1.840013691337e+01 1.000000000000e+00 
1.840213759793e+01 1.000000000000e+00 
1.840413828250e+01 1.000000000000e+00 
1.936312424888e+01 1.000000000000e+00 
1.936495820973e+01 1.000000000000e+00 
1.936679217059e+01 1.000000000000e+00 
1.936862613144e+01 1.000000000000e+00 
1.937046009229e+01 1.000000000000e+00 
2.033011295353e+01 1.000000000000e+00 
2.033178019067e+01 1.000000000000e+00 
2.033344742781e+01 1.000000000000e+00 
2.033511466495e+01 1.000000000000e+00 
2.033678190208e+01 1.000000000000e+00 
2.129710165818e+01 1.000000000000e+00 
2.129860217160e+01 1.000000000000e+00 
2.130010268503e+01 1.000000000000e+00 
2.130160319845e+01 1.000000000000e+00 
2.130310371188e+01 1.000000000000e+00 
2.226409036282e+01 1.000000000000e+00 
2.226542415253e+01 1.000000000000e+00 
2.226675794225e+01 1.000000000000e+00 
2.226809173196e+01 1.000000000000e+00 
2.226942552167e+01 1.000000000000e+00 
2.323107906747e+01 1.000000000000e+00 
2.323224613347e+01 1.000000000000e+00 
2.323341319946e+01 1.000000000000e+00 
2.323458026546e+01 1.000000000000e+00 
2.323574733146e+01 1.000000000000e+00 
2.419806777212e+01 1.000000000000e+00 
2.419906811440e+01 1.000000000000e+00 
2.420006845668e+01 1.000000000000e+00 
2.420106879897e+01 1.000000000000e+00 
2.420206914125e+01 1.000000000000e+00 
2.516505647676e+01 1.000000000000e+00 
2.516589009533e+01 1.000000000000e+00 
2.516672371390e+01 1.000000000000e+00 
2.516755733247e+01 1.000000000000e+00 
2.516839095104e+01 1.000000000000e+00 
2.613204518141e+01 1.000000000000e+00 
2.613271207627e+01 1.000000000000e+00 
2.613337897112e+01 1.000000000000e+00 
2.613404586598e+01 1.000000000000e+00 
2.613471276083e+01 1.000000000000e+00 
2.709903388606e+01 1.000000000000e+00 
2.709953405720e+01 1.000000000000e+00 
2.710003422834e+01 1.000000000000e+00 
2.710053439948e+01 1.000000000000e+00 
2.710103457063e+01 1.000000000000e+00 
2.806602259071e+01 1.000000000000e+00 
2.806635603813e+01 1.000000000000e+00 
2.806668948556e+01 1.000000000000e+00 
2.806702293299e+01 1.000000000000e+00 
2.806735638042e+01 1.000000000000e+00 
2.903301129535e+01 1.000000000000e+00 
2.903317801907e+01 1.000000000000e+00 
2.903334474278e+01 1.000000000000e+00 
2.903351146649e+01 1.000000000000e+00 
2.903367819021e+01 1.000000000000e+00 
3.000000000000e+01 1.000000000000e+00 
3.000000000000e+01 1.000000000000e+00 
3.000000000000e+01 1.000000000000e+00 
3.000000000000e+01 1.000000000000e+00 
3.000000000000e+01 1.000000000000e+00 
3.002500000000e+01 9.876207709446e-01 
3.002500000000e+01 9.876207709446e-01 
3.002500000000e+01 9.876207709446e-01 
3.002500000000e+01 9.876207709446e-01 
3.002500000000e+01 9.876207709446e-01 
3.005000000000e+01 9.697756439369e-01 
3.005000000000e+01 9.697756439369e-01 
3.005000000000e+01 9.697756439369e-01 
3.005000000000e+01 9.697756439369e-01 
3.005000000000e+01 9.697756439369e-01 
3.007500000000e+01 9.507134089444e-01 
3.007500000000e+01 9.507134089444e-01 
3.007500000000e+01 9.507134089444e-01 
3.007500000000e+01 9.507134089444e-01 
3.007500000000e+01 9.507134089444e-01 
3.010000000000e+01 9.315621650298e-01 
3.010000000000e+01 9.315621650298e-01 
3.010000000000e+01 9.315621650298e-01 
3.010000000000e+01 9.315621650298e-01 
3.010000000000e+01 9.315621650298e-01 
3.012500000000e+01 9.128758324042e-01 
3.012500000000e+01 9.128758324042e-01 
3.012500000000e+01 9.128758324042e-01 
3.012500000000e+01 9.128758324042e-01 
3.012500000000e+01 9.128758324042e-01 
3.015000000000e+01 8.949248043380e-01 
3.015000000000e+01 8.949248043380e-01 
3.015000000000e+01 8.949248043380e-01 
3.015000000000e+01 8.949248043380e-01 
3.015000000000e+01 8.949248043380e-01 
3.017500000000e+01 8.778290027968e-01 
3.017500000000e+01 8.778290027968e-01 
3.017500000000e+01 8.778290027968e-01 
3.017500000000e+01 8.778290027968e-01 
3.017500000000e+01 8.778290027968e-01 
3.020000000000e+01 8.616255702900e-01 
3.020000000000e+01 8.616255702900e-01 
3.020000000000e+01 8.616255702900e-01 
3.020000000000e+01 8.616255702900e-01 
3.020000000000e+01 8.616255702900e-01 
3.022500000000e+01 8.463059583920e-01 
3.022500000000e+01 8.463059583920e-01 
3.022500000000e+01 8.463059583920e-01 
3.022500000000e+01 8.463059583920e-01 
3.022500000000e+01 8.463059583920e-01 
3.025000000000e+01 8.318370344398e-01 
3.025000000000e+01 8.318370344398e-01 
3.025000000000e+01 8.318370344398e-01 
3.025000000000e+01 8.318370344398e-01 
3.025000000000e+01 8.318370344398e-01 
3.027500000000e+01 8.181733156316e-01 
3.027500000000e+01 8.181733156316e-01 
3.027500000000e+01 8.181733156316e-01 
3.027500000000e+01 8.181733156316e-01 
3.027500000000e+01 8.181733156316e-01 
3.030000000000e+01 8.052640970350e-01 
3.030000000000e+01 8.052640970350e-01 
3.030000000000e+01 8.052640970350e-01 
3.030000000000e+01 8.052640970350e-01 
3.030000000000e+01 8.052640970350e-01 
3.032500000000e+01 7.930575753856e-01 
3.032500000000e+01 7.930575753856e-01 
3.032500000000e+01 7.930575753856e-01 
3.032500000000e+01 7.930575753856e-01 
3.032500000000e+01 7.930575753856e-01 
3.035000000000e+01 7.815031815402e-01 
3.035000000000e+01 7.815031815402e-01 
3.035000000000e+01 7.815031815402e-01 
3.035000000000e+01 7.815031815402e-01 
3.035000000000e+01 7.815031815402e-01 
3.037500000000e+01 7.705528376764e-01 
3.037500000000e+01 7.705528376764e-01 
3.037500000000e+01 7.705528376764e-01 
3.037500000000e+01 7.705528376764e-01 
3.037500000000e+01 7.705528376764e-01 
3.040000000000e+01 7.601615689674e-01 
3.040000000000e+01 7.601615689674e-01 
3.040000000000e+01 7.601615689674e-01 
3.040000000000e+01 7.601615689674e-01 
3.040000000000e+01 7.601615689674e-01 
3.042500000000e+01 7.502877306002e-01 
3.042500000000e+01 7.502877306002e-01 
3.042500000000e+01 7.502877306002e-01 
3.042500000000e+01 7.502877306002e-01 
3.042500000000e+01 7.502877306002e-01 
3.045000000000e+01 7.408930096824e-01 
3.045000000000e+01 7.408930096824e-01 
3.045000000000e+01 7.408930096824e-01 
3.045000000000e+01 7.408930096824e-01 
3.045000000000e+01 7.408930096824e-01 
3.047500000000e+01 7.319422999608e-01 
3.047500000000e+01 7.319422999608e-01 
3.047500000000e+01 7.319422999608e-01 
3.047500000000e+01 7.319422999608e-01 
3.047500000000e+01 7.319422999608e-01 
3.050000000000e+01 7.234035093991e-01 
3.050000000000e+01 7.234035093991e-01 
3.050000000000e+01 7.234035093991e-01 
3.050000000000e+01 7.234035093991e-01 
3.050000000000e+01 7.234035093991e-01 
3.052500000000e+01 7.152473371957e-01 
3.052500000000e+01 7.152473371957e-01 
3.052500000000e+01 7.152473371957e-01 
3.052500000000e+01 7.152473371957e-01 
3.052500000000e+01 7.152473371957e-01 
3.055000000000e+01 7.074470422112e-01 
3.055000000000e+01 7.074470422112e-01 
3.055000000000e+01 7.074470422112e-01 
3.055000000000e+01 7.074470422112e-01 
3.055000000000e+01 7.074470422112e-01 
3.057500000000e+01 6.999782156504e-01 
3.057500000000e+01 6.999782156504e-01 
3.057500000000e+01 6.999782156504e-01 
3.057500000000e+01 6.999782156504e-01 
3.057500000000e+01 6.999782156504e-01 
3.060000000000e+01 6.928185651596e-01 
3.060000000000e+01 6.928185651596e-01 
3.060000000000e+01 6.928185651596e-01 
3.060000000000e+01 6.928185651596e-01 
3.060000000000e+01 6.928185651596e-01 
3.062500000000e+01 6.859477139679e-01 
3.062500000000e+01 6.859477139679e-01 
3.062500000000e+01 6.859477139679e-01 
3.062500000000e+01 6.859477139679e-01 
3.062500000000e+01 6.859477139679e-01 
3.065000000000e+01 6.793470165436e-01 
3.065000000000e+01 6.793470165436e-01 
3.065000000000e+01 6.793470165436e-01 
3.065000000000e+01 6.793470165436e-01 
3.065000000000e+01 6.793470165436e-01 
3.067500000000e+01 6.729993909360e-01 
3.067500000000e+01 6.729993909360e-01 
3.067500000000e+01 6.729993909360e-01 
3.067500000000e+01 6.729993909360e-01 
3.067500000000e+01 6.729993909360e-01 
3.070000000000e+01 6.668891672206e-01 
3.070000000000e+01 6.668891672206e-01 
3.070000000000e+01 6.668891672206e-01 
3.070000000000e+01 6.668891672206e-01 
3.070000000000e+01 6.668891672206e-01 
3.072500000000e+01 6.610019510587e-01 
3.072500000000e+01 6.610019510587e-01 
3.072500000000e+01 6.610019510587e-01 
3.072500000000e+01 6.610019510587e-01 
3.072500000000e+01 6.610019510587e-01 
3.075000000000e+01 6.553245011865e-01 
3.075000000000e+01 6.553245011865e-01 
3.075000000000e+01 6.553245011865e-01 
3.075000000000e+01 6.553245011865e-01 
3.075000000000e+01 6.553245011865e-01 
3.077500000000e+01 6.498446195878e-01 
3.077500000000e+01 6.498446195878e-01 
3.077500000000e+01 6.498446195878e-01 
3.077500000000e+01 6.498446195878e-01 
3.077500000000e+01 6.498446195878e-01 
3.080000000000e+01 6.445510531188e-01 
3.080000000000e+01 6.445510531188e-01 
3.080000000000e+01 6.445510531188e-01 
3.080000000000e+01 6.445510531188e-01 
3.080000000000e+01 6.445510531188e-01 
3.082500000000e+01 6.394334054150e-01 
3.082500000000e+01 6.394334054150e-01 
3.082500000000e+01 6.394334054150e-01 
3.082500000000e+01 6.394334054150e-01 
3.082500000000e+01 6.394334054150e-01 
3.085000000000e+01 6.344820579917e-01 
3.085000000000e+01 6.344820579917e-01 
3.085000000000e+01 6.344820579917e-01 
3.085000000000e+01 6.344820579917e-01 
3.085000000000e+01 6.344820579917e-01 
3.087500000000e+01 6.296880995462e-01 
3.087500000000e+01 6.296880995462e-01 
3.087500000000e+01 6.296880995462e-01 
3.087500000000e+01 6.296880995462e-01 
3.087500000000e+01 6.296880995462e-01 
3.090000000000e+01 6.250432625624e-01 
3.090000000000e+01 6.250432625624e-01 
3.090000000000e+01 6.250432625624e-01 
3.090000000000e+01 6.250432625624e-01 
3.090000000000e+01 6.250432625624e-01 
3.092500000000e+01 6.205398664126e-01 
3.092500000000e+01 6.205398664126e-01 
3.092500000000e+01 6.205398664126e-01 
3.092500000000e+01 6.205398664126e-01 
3.092500000000e+01 6.205398664126e-01 
3.095000000000e+01 6.161707662369e-01 
3.095000000000e+01 6.161707662369e-01 
3.095000000000e+01 6.161707662369e-01 
3.095000000000e+01 6.161707662369e-01 
3.095000000000e+01 6.161707662369e-01 
3.097500000000e+01 6.119293069613e-01 
3.097500000000e+01 6.119293069613e-01 
3.097500000000e+01 6.119293069613e-01 
3.097500000000e+01 6.119293069613e-01 
3.097500000000e+01 6.119293069613e-01 
3.100000000000e+01 6.078092818871e-01 
3.100000000000e+01 6.078092818871e-01 
3.100000000000e+01 6.078092818871e-01 
3.100000000000e+01 6.078092818871e-01 
3.100000000000e+01 6.078092818871e-01 
3.102500000000e+01 6.038048953494e-01 
3.102500000000e+01 6.038048953494e-01 
3.102500000000e+01 6.038048953494e-01 
3.102500000000e+01 6.038048953494e-01 
3.102500000000e+01 6.038048953494e-01 
3.105000000000e+01 5.999107290013e-01 
3.105000000000e+01 5.999107290013e-01 
3.105000000000e+01 5.999107290013e-01 
3.105000000000e+01 5.999107290013e-01 
3.105000000000e+01 5.999107290013e-01 
3.107500000000e+01 5.961217113309e-01 
3.107500000000e+01 5.961217113309e-01 
3.107500000000e+01 5.961217113309e-01 
3.107500000000e+01 5.961217113309e-01 
3.107500000000e+01 5.961217113309e-01 
3.110000000000e+01 5.924330900627e-01 
3.110000000000e+01 5.924330900627e-01 
3.110000000000e+01 5.924330900627e-01 
3.110000000000e+01 5.924330900627e-01 
3.110000000000e+01 5.924330900627e-01 
3.112500000000e+01 5.888404071392e-01 
3.112500000000e+01 5.888404071392e-01 
3.112500000000e+01 5.888404071392e-01 
3.112500000000e+01 5.888404071392e-01 
3.112500000000e+01 5.888404071392e-01 
3.115000000000e+01 5.853394760078e-01 
3.115000000000e+01 5.853394760078e-01 
3.115000000000e+01 5.853394760078e-01 
3.115000000000e+01 5.853394760078e-01 
3.115000000000e+01 5.853394760078e-01 
3.117500000000e+01 5.819263609758e-01 
3.117500000000e+01 5.819263609758e-01 
3.117500000000e+01 5.819263609758e-01 
3.117500000000e+01 5.819263609758e-01 
3.117500000000e+01 5.819263609758e-01 
3.120000000000e+01 5.785973584173e-01 
3.120000000000e+01 5.785973584173e-01 
3.120000000000e+01 5.785973584173e-01 
3.120000000000e+01 5.785973584173e-01 
3.120000000000e+01 5.785973584173e-01 
3.122500000000e+01 5.753489796460e-01 
3.122500000000e+01 5.753489796460e-01 
3.122500000000e+01 5.753489796460e-01 
3.122500000000e+01 5.753489796460e-01 
3.122500000000e+01 5.753489796460e-01 
3.125000000000e+01 5.721779352840e-01 
3.125000000000e+01 5.721779352840e-01 
3.125000000000e+01 5.721779352840e-01 
3.125000000000e+01 5.721779352840e-01 
3.125000000000e+01 5.721779352840e-01 
3.127500000000e+01 5.690811209785e-01 
3.127500000000e+01 5.690811209785e-01 
3.127500000000e+01 5.690811209785e-01 
3.127500000000e+01 5.690811209785e-01 
3.127500000000e+01 5.690811209785e-01 
3.130000000000e+01 5.660556043336e-01 
3.130000000000e+01 5.660556043336e-01 
3.130000000000e+01 5.660556043336e-01 
3.130000000000e+01 5.660556043336e-01 
3.130000000000e+01 5.660556043336e-01 
3.132500000000e+01 5.630986129391e-01 
3.132500000000e+01 5.630986129391e-01 
3.132500000000e+01 5.630986129391e-01 
3.132500000000e+01 5.630986129391e-01 
3.132500000000e+01 5.630986129391e-01 
3.135000000000e+01 5.602075233904e-01 
3.135000000000e+01 5.602075233904e-01 
3.135000000000e+01 5.602075233904e-01 
3.135000000000e+01 5.602075233904e-01 
3.135000000000e+01 5.602075233904e-01 
3.137500000000e+01 5.573798512060e-01 
3.137500000000e+01 5.573798512060e-01 
3.137500000000e+01 5.573798512060e-01 
3.137500000000e+01 5.573798512060e-01 
3.137500000000e+01 5.573798512060e-01 
3.140000000000e+01 5.546132415581e-01 
3.140000000000e+01 5.546132415581e-01 
3.140000000000e+01 5.546132415581e-01 
3.140000000000e+01 5.546132415581e-01 
3.140000000000e+01 5.546132415581e-01 
3.142500000000e+01 5.519054607414e-01 
3.142500000000e+01 5.519054607414e-01 
3.142500000000e+01 5.519054607414e-01 
3.142500000000e+01 5.519054607414e-01 
3.142500000000e+01 5.519054607414e-01 
3.145000000000e+01 5.492543883110e-01 
3.145000000000e+01 5.492543883110e-01 
3.145000000000e+01 5.492543883110e-01 
3.145000000000e+01 5.492543883110e-01 
3.145000000000e+01 5.492543883110e-01 
3.147500000000e+01 5.466580098318e-01 
3.147500000000e+01 5.466580098318e-01 
3.147500000000e+01 5.466580098318e-01 
3.147500000000e+01 5.466580098318e-01 
3.147500000000e+01 5.466580098318e-01 
3.150000000000e+01 5.441144101810e-01 
3.150000000000e+01 5.441144101810e-01 
3.150000000000e+01 5.441144101810e-01 
3.150000000000e+01 5.441144101810e-01 
3.150000000000e+01 5.441144101810e-01 
3.152500000000e+01 5.416217673588e-01 
3.152500000000e+01 5.416217673588e-01 
3.152500000000e+01 5.416217673588e-01 
3.152500000000e+01 5.416217673588e-01 
3.152500000000e+01 5.416217673588e-01 
3.155000000000e+01 5.391783467591e-01 
3.155000000000e+01 5.391783467591e-01 
3.155000000000e+01 5.391783467591e-01 
3.155000000000e+01 5.391783467591e-01 
3.155000000000e+01 5.391783467591e-01 
3.157500000000e+01 5.367824958643e-01 
3.157500000000e+01 5.367824958643e-01 
3.157500000000e+01 5.367824958643e-01 
3.157500000000e+01 5.367824958643e-01 
3.157500000000e+01 5.367824958643e-01 
3.160000000000e+01 5.344326393247e-01 
3.160000000000e+01 5.344326393247e-01 
3.160000000000e+01 5.344326393247e-01 
3.160000000000e+01 5.344326393247e-01 
3.160000000000e+01 5.344326393247e-01 
3.162500000000e+01 5.321272743928e-01 
3.162500000000e+01 5.321272743928e-01 
3.162500000000e+01 5.321272743928e-01 
3.162500000000e+01 5.321272743928e-01 
3.162500000000e+01 5.321272743928e-01 
3.165000000000e+01 5.298649666811e-01 
3.165000000000e+01 5.298649666811e-01 
3.165000000000e+01 5.298649666811e-01 
3.165000000000e+01 5.298649666811e-01 
3.165000000000e+01 5.298649666811e-01 
3.167500000000e+01 5.276443462180e-01 
3.167500000000e+01 5.276443462180e-01 
3.167500000000e+01 5.276443462180e-01 
3.167500000000e+01 5.276443462180e-01 
3.167500000000e+01 5.276443462180e-01 
3.170000000000e+01 5.254641037767e-01 
3.170000000000e+01 5.254641037767e-01 
3.170000000000e+01 5.254641037767e-01 
3.170000000000e+01 5.254641037767e-01 
3.170000000000e+01 5.254641037767e-01 
3.172500000000e+01 5.233229874560e-01 
3.172500000000e+01 5.233229874560e-01 
3.172500000000e+01 5.233229874560e-01 
3.172500000000e+01 5.233229874560e-01 
3.172500000000e+01 5.233229874560e-01 
3.175000000000e+01 5.212197994921e-01 
3.175000000000e+01 5.212197994921e-01 
3.175000000000e+01 5.212197994921e-01 
3.175000000000e+01 5.212197994921e-01 
3.175000000000e+01 5.212197994921e-01 
3.177500000000e+01 5.191533932842e-01 
3.177500000000e+01 5.191533932842e-01 
3.177500000000e+01 5.191533932842e-01 
3.177500000000e+01 5.191533932842e-01 
3.177500000000e+01 5.191533932842e-01 
3.180000000000e+01 5.171226706164e-01 
3.180000000000e+01 5.171226706164e-01 
3.180000000000e+01 5.171226706164e-01 
3.180000000000e+01 5.171226706164e-01 
3.180000000000e+01 5.171226706164e-01 
3.182500000000e+01 5.151265790614e-01 
3.182500000000e+01 5.151265790614e-01 
3.182500000000e+01 5.151265790614e-01 
3.182500000000e+01 5.151265790614e-01 
3.182500000000e+01 5.151265790614e-01 
3.185000000000e+01 5.131641095520e-01 
3.185000000000e+01 5.131641095520e-01 
3.185000000000e+01 5.131641095520e-01 
3.185000000000e+01 5.131641095520e-01 
3.185000000000e+01 5.131641095520e-01 
3.187500000000e+01 5.112342941078e-01 
3.187500000000e+01 5.112342941078e-01 
3.187500000000e+01 5.112342941078e-01 
3.187500000000e+01 5.112342941078e-01 
3.187500000000e+01 5.112342941078e-01 
3.190000000000e+01 5.093362037054e-01 
3.190000000000e+01 5.093362037054e-01 
3.190000000000e+01 5.093362037054e-01 
3.190000000000e+01 5.093362037054e-01 
3.190000000000e+01 5.093362037054e-01 
3.192500000000e+01 5.074689462822e-01 
3.192500000000e+01 5.074689462822e-01 
3.192500000000e+01 5.074689462822e-01 
3.192500000000e+01 5.074689462822e-01 
3.192500000000e+01 5.074689462822e-01 
3.195000000000e+01 5.056316648631e-01 
3.195000000000e+01 5.056316648631e-01 
3.195000000000e+01 5.056316648631e-01 
3.195000000000e+01 5.056316648631e-01 
3.195000000000e+01 5.056316648631e-01 
3.197500000000e+01 5.038235358020e-01 
3.197500000000e+01 5.038235358020e-01 
3.197500000000e+01 5.038235358020e-01 
3.197500000000e+01 5.038235358020e-01 
3.197500000000e+01 5.038235358020e-01 
3.200000000000e+01 5.014954904786e-01 
3.200000000000e+01 5.014979116404e-01 
3.200000000000e+01 5.014991207109e-01 
3.200000000000e+01 5.014967015626e-01 
3.200000000000e+01 5.015003287734e-01 
3.279806777213e+01 4.559246494837e-01 
3.279906811441e+01 4.558772051890e-01 
3.280006845669e+01 4.558297817450e-01 
3.280106879898e+01 4.557823791364e-01 
3.280206914126e+01 4.557349973477e-01 
3.359613554426e+01 4.249414248238e-01 
3.359813622882e+01 4.248740528214e-01 
3.360013691339e+01 4.248067292442e-01 
3.360213759796e+01 4.247394540320e-01 
3.360413828252e+01 4.246722271248e-01 
3.439420331638e+01 4.016947905150e-01 
3.439720434323e+01 4.016172493140e-01 
3.440020537008e+01 4.015397771313e-01 
3.440320639693e+01 4.014623738601e-01 
3.440620742379e+01 4.013850393937e-01 
3.519227108851e+01 3.833503542107e-01 
3.519627245765e+01 3.832673540984e-01 
3.520027382678e+01 3.831844377036e-01 
3.520427519591e+01 3.831016048793e-01 
3.520827656505e+01 3.830188554786e-01 
3.599033886064e+01 3.683390379488e-01 
3.599534057206e+01 3.682530758710e-01 
3.600034228347e+01 3.681672080013e-01 
3.600534399489e+01 3.680814341595e-01 
3.601034570631e+01 3.679957541661e-01 
 TITLE = "Profiles along polylines"
 VARIABLES = "DIST" "SATURATION1" 
 ZONE T="TIME=1.797693134862e+308"
9.903388606393e-01 1.000000000000e+00 
9.953405720567e-01 1.000000000000e+00 
1.000342283474e+00 1.000000000000e+00 
1.005343994891e+00 1.000000000000e+00 
1.010345706309e+00 1.000000000000e+00 
1.957327565284e+00 1.000000000000e+00 
1.962162552988e+00 1.000000000000e+00 
1.966997540691e+00 1.000000000000e+00 
1.971832528395e+00 1.000000000000e+00 
1.976667516098e+00 1.000000000000e+00 
2.924316269929e+00 1.000000000000e+00 
2.928984533919e+00 1.000000000000e+00 
2.933652797908e+00 1.000000000000e+00 
2.938321061898e+00 1.000000000000e+00 
2.942989325887e+00 1.000000000000e+00 
3.891304974575e+00 1.000000000000e+00 
3.895806514851e+00 1.000000000000e+00 
3.900308055126e+00 1.000000000000e+00 
3.904809595402e+00 1.000000000000e+00 
3.909311135678e+00 1.000000000000e+00 
4.858293679220e+00 1.000000000000e+00 
4.862628495782e+00 1.000000000000e+00 
4.866963312344e+00 1.000000000000e+00 
4.871298128906e+00 1.000000000000e+00 
4.875632945467e+00 1.000000000000e+00 
5.825282383865e+00 1.000000000000e+00 
5.829450476713e+00 1.000000000000e+00 
5.833618569561e+00 1.000000000000e+00 
5.837786662409e+00 1.000000000000e+00 
5.841954755256e+00 1.000000000000e+00 
6.792271088510e+00 1.000000000000e+00 
6.796272457643e+00 1.000000000000e+00 
6.800273826777e+00 1.000000000000e+00 
6.804275195911e+00 1.000000000000e+00 
6.808276565045e+00 1.000000000000e+00 
7.759259793154e+00 1.000000000000e+00 
7.763094438574e+00 1.000000000000e+00 
7.766929083994e+00 1.000000000000e+00 
7.770763729414e+00 1.000000000000e+00 
7.774598374834e+00 1.000000000000e+00 
8.726248497799e+00 1.000000000000e+00 
8.729916419505e+00 1.000000000000e+00 
8.733584341211e+00 1.000000000000e+00 
8.737252262917e+00 1.000000000000e+00 
8.740920184623e+00 1.000000000000e+00 
9.693237202441e+00 1.000000000000e+00 
9.696738400433e+00 1.000000000000e+00 
9.700239598425e+00 1.000000000000e+00 
9.703740796417e+00 1.000000000000e+00 
9.707241994409e+00 1.000000000000e+00 
1.066022590708e+01 1.000000000000e+00 
1.066356038136e+01 1.000000000000e+00 
1.066689485564e+01 1.000000000000e+00 
1.067022932992e+01 1.000000000000e+00 
1.067356380420e+01 1.000000000000e+00 
1.162721461172e+01 1.000000000000e+00 
1.163038236229e+01 1.000000000000e+00 
1.163355011285e+01 1.000000000000e+00 
1.163671786342e+01 1.000000000000e+00 
1.163988561398e+01 1.000000000000e+00 
1.259420331637e+01 1.000000000000e+00 
1.259720434322e+01 1.000000000000e+00 
1.260020537007e+01 1.000000000000e+00 
1.260320639692e+01 1.000000000000e+00 
1.260620742377e+01 1.000000000000e+00 
1.356119202101e+01 1.000000000000e+00 
1.356402632414e+01 1.000000000000e+00 
1.356686062728e+01 1.000000000000e+00 
1.356969493042e+01 1.000000000000e+00 
1.357252923355e+01 1.000000000000e+00 
1.452818072565e+01 1.000000000000e+00 
1.453084830507e+01 1.000000000000e+00 
1.453351588450e+01 1.000000000000e+00 
1.453618346392e+01 1.000000000000e+00 
1.453885104334e+01 1.000000000000e+00 
1.549516943029e+01 1.000000000000e+00 
1.549767028600e+01 1.000000000000e+00 
1.550017114171e+01 1.000000000000e+00 
1.550267199742e+01 1.000000000000e+00 
1.550517285313e+01 1.000000000000e+00 
1.646215813494e+01 1.000000000000e+00 
1.646449226693e+01 1.000000000000e+00 
1.646682639893e+01 1.000000000000e+00 
1.646916053092e+01 1.000000000000e+00 
1.647149466292e+01 1.000000000000e+00 
1.742914683959e+01 1.000000000000e+00 
1.743131424787e+01 1.000000000000e+00 
1.743348165615e+01 1.000000000000e+00 
1.743564906443e+01 1.000000000000e+00 
1.743781647271e+01 1.000000000000e+00 
1.839613554423e+01 1.000000000000e+00 
1.839813622880e+01 1.000000000000e+00 
1.840013691337e+01 1.000000000000e+00 
1.840213759793e+01 1.000000000000e+00 
1.840413828250e+01 1.000000000000e+00 
1.936312424888e+01 1.000000000000e+00 
1.936495820973e+01 1.000000000000e+00 
1.936679217059e+01 1.000000000000e+00 
1.936862613144e+01 1.000000000000e+00 
1.937046009229e+01 1.000000000000e+00 
2.033011295353e+01 1.000000000000e+00 
2.033178019067e+01 1.000000000000e+00 
2.033344742781e+01 1.000000000000e+00 
2.033511466495e+01 1.000000000000e+00 
2.033678190208e+01 1.000000000000e+00 
2.129710165818e+01 1.000000000000e+00 
2.129860217160e+01 1.000000000000e+00 
2.130010268503e+01 1.000000000000e+00 
2.130160319845e+01 1.000000000000e+00 
2.130310371188e+01 1.000000000000e+00 
2.226409036282e+01 1.000000000000e+00 
2.226542415253e+01 1.000000000000e+00 
2.226675794225e+01 1.000000000000e+00 
2.226809173196e+01 1.000000000000e+00 
2.226942552167e+01 1.000000000000e+00 
2.323107906747e+01 1.000000000000e+00 
2.323224613347e+01 1.000000000000e+00 
2.323341319946e+01 1.000000000000e+00 
2.323458026546e+01 1.000000000000e+00 
2.323574733146e+01 1.000000000000e+00 
2.419806777212e+01 1.000000000000e+00 
2.419906811440e+01 1.000000000000e+00 
2.420006845668e+01 1.000000000000e+00 
2.420106879897e+01 1.000000000000e+00 
2.420206914125e+01 1.000000000000e+00 
2.516505647676e+01 1.000000000000e+00 
2.516589009533e+01 1.000000000000e+00 
2.516672371390e+01 1.000000000000e+00 
2.516755733247e+01 1.000000000000e+00 
2.516839095104e+01 1.000000000000e+00 
2.613204518141e+01 1.000000000000e+00 
2.613271207627e+01 1.000000000000e+00 
2.613337897112e+01 1.000000000000e+00 
2.613404586598e+01 1.000000000000e+00 
2.613471276083e+01 1.000000000000e+00 
2.709903388606e+01 1.000000000000e+00 
2.709953405720e+01 1.000000000000e+00 
2.710003422834e+01 1.000000000000e+00 
2.710053439948e+01 1.000000000000e+00 
2.710103457063e+01 1.000000000000e+00 
2.806602259071e+01 1.000000000000e+00 
2.806635603813e+01 1.000000000000e+00 
2.806668948556e+01 1.000000000000e+00 
2.806702293299e+01 1.000000000000e+00 
2.806735638042e+01 1.000000000000e+00 
2.903301129535e+01 1.000000000000e+00 
2.903317801907e+01 1.000000000000e+00 
2.903334474278e+01 1.000000000000e+00 
2.903351146649e+01 1.000000000000e+00 
2.903367819021e+01 1.000000000000e+00 
3.000000000000e+01 1.000000000000e+00 
3.000000000000e+01 1.000000000000e+00 
3.000000000000e+01 1.000000000000e+00 
3.000000000000e+01 1.000000000000e+00 
3.000000000000e+01 1.000000000000e+00 
3.002500000000e+01 1.000000000000e+00 
3.002500000000e+01 1.000000000000e+00 
3.002500000000e+01 1.000000000000e+00 
3.002500000000e+01 1.000000000000e+00 
3.002500000000e+01 1.000000000000e+00 
3.005000000000e+01 1.000000000000e+00 
3.005000000000e+01 1.000000000000e+00 
3.005000000000e+01 1.000000000000e+00 
3.005000000000e+01 1.000000000000e+00 
3.005000000000e+01 1.000000000000e+00 
3.007500000000e+01 1.000000000000e+00 
3.007500000000e+01 1.000000000000e+00 
3.007500000000e+01 1.000000000000e+00 
3.007500000000e+01 1.000000000000e+00 
3.007500000000e+01 1.000000000000e+00 
3.010000000000e+01 1.000000000000e+00 
3.010000000000e+01 1.000000000000e+00 
3.010000000000e+01 1.000000000000e+00 
3.010000000000e+01 1.000000000000e+00 
3.010000000000e+01 1.000000000000e+00 
3.012500000000e+01 1.000000000000e+00 
3.012500000000e+01 1.000000000000e+00 
3.012500000000e+01 1.000000000000e+00 
3.012500000000e+01 1.000000000000e+00 
3.012500000000e+01 1.000000000000e+00 
3.015000000000e+01 1.000000000000e+00 
3.015000000000e+01 1.000000000000e+00 
3.015000000000e+01 1.000000000000e+00 