 TITLE = "Profiles along polylines"
 VARIABLES = "DIST" "SATURATION1" 
 ZONE T="TIME=0.000000000000e+00"
7.402532897699e-01 1.000000000000e+00 
7.452550011872e-01 1.000000000000e+00 
7.502567126046e-01 1.000000000000e+00 
7.552584240220e-01 1.000000000000e+00 
7.602601354394e-01 1.000000000000e+00 
1.715578180111e+00 1.000000000000e+00 
1.720413167814e+00 1.000000000000e+00 
1.725248155518e+00 1.000000000000e+00 
1.730083143221e+00 1.000000000000e+00 
1.734918130925e+00 1.000000000000e+00 
2.690903070451e+00 1.000000000000e+00 
2.695571334441e+00 1.000000000000e+00 
2.700239598430e+00 1.000000000000e+00 
2.704907862420e+00 1.000000000000e+00 
2.709576126409e+00 1.000000000000e+00 
3.666227960792e+00 1.000000000000e+00 
3.670729501068e+00 1.000000000000e+00 
3.675231041344e+00 1.000000000000e+00 
3.679732581619e+00 1.000000000000e+00 
3.684234121895e+00 1.000000000000e+00 
4.641552851134e+00 1.000000000000e+00 
4.645887667695e+00 1.000000000000e+00 
4.650222484257e+00 1.000000000000e+00 
4.654557300819e+00 1.000000000000e+00 
4.658892117381e+00 1.000000000000e+00 
5.616877741474e+00 1.000000000000e+00 
5.621045834322e+00 1.000000000000e+00 
5.625213927169e+00 1.000000000000e+00 
5.629382020017e+00 1.000000000000e+00 
5.633550112865e+00 1.000000000000e+00 
6.592202631814e+00 1.000000000000e+00 
6.596204000948e+00 1.000000000000e+00 
6.600205370082e+00 1.000000000000e+00 
6.604206739216e+00 1.000000000000e+00 
6.608208108350e+00 1.000000000000e+00 
7.567527522154e+00 1.000000000000e+00 
7.571362167574e+00 1.000000000000e+00 
7.575196812994e+00 1.000000000000e+00 
7.579031458414e+00 1.000000000000e+00 
7.582866103834e+00 1.000000000000e+00 
8.542852412494e+00 1.000000000000e+00 
8.546520334200e+00 1.000000000000e+00 
8.550188255906e+00 1.000000000000e+00 
8.553856177613e+00 1.000000000000e+00 
8.557524099319e+00 1.000000000000e+00 
9.518177302832e+00 1.000000000000e+00 
9.521678500824e+00 1.000000000000e+00 
9.525179698816e+00 1.000000000000e+00 
9.528680896808e+00 1.000000000000e+00 
9.532182094801e+00 1.000000000000e+00 
1.049350219317e+01 1.000000000000e+00 
1.049683666745e+01 1.000000000000e+00 
1.050017114173e+01 1.000000000000e+00 
1.050350561600e+01 1.000000000000e+00 
1.050684009028e+01 1.000000000000e+00 
1.146882708351e+01 1.000000000000e+00 
1.147199483407e+01 1.000000000000e+00 
1.147516258464e+01 1.000000000000e+00 
1.147833033520e+01 1.000000000000e+00 
1.148149808576e+01 1.000000000000e+00 
1.244415197384e+01 1.000000000000e+00 
1.244715300069e+01 1.000000000000e+00 
1.245015402755e+01 1.000000000000e+00 
1.245315505440e+01 1.000000000000e+00 
1.245615608125e+01 1.000000000000e+00 
1.341947686418e+01 1.000000000000e+00 
1.342231116732e+01 1.000000000000e+00 
1.342514547045e+01 1.000000000000e+00 
1.342797977359e+01 1.000000000000e+00 
1.343081407673e+01 1.000000000000e+00 
1.439480175452e+01 1.000000000000e+00 
1.439746933394e+01 1.000000000000e+00 
1.440013691336e+01 1.000000000000e+00 
1.440280449279e+01 1.000000000000e+00 
1.440547207221e+01 1.000000000000e+00 
1.537012664486e+01 1.000000000000e+00 
1.537262750057e+01 1.000000000000e+00 
1.537512835627e+01 1.000000000000e+00 
1.537762921198e+01 1.000000000000e+00 
1.538013006769e+01 1.000000000000e+00 
1.634545153520e+01 1.000000000000e+00 
1.634778566719e+01 1.000000000000e+00 
1.635011979919e+01 1.000000000000e+00 
1.635245393118e+01 1.000000000000e+00 
1.635478806318e+01 1.000000000000e+00 
1.732077642554e+01 1.000000000000e+00 
1.732294383382e+01 1.000000000000e+00 
1.732511124210e+01 1.000000000000e+00 
1.732727865038e+01 1.000000000000e+00 
1.732944605867e+01 1.000000000000e+00 
1.829610131589e+01 1.000000000000e+00 
1.829810200045e+01 1.000000000000e+00 
1.830010268502e+01 1.000000000000e+00 
1.830210336959e+01 1.000000000000e+00 
1.830410405415e+01 1.000000000000e+00 
1.927142620623e+01 1.000000000000e+00 
1.927326016708e+01 1.000000000000e+00 
1.927509412793e+01 1.000000000000e+00 
1.927692808879e+01 1.000000000000e+00 
1.927876204964e+01 1.000000000000e+00 
2.024675109657e+01 1.000000000000e+00 
2.024841833371e+01 1.000000000000e+00 
2.025008557085e+01 1.000000000000e+00 
2.025175280799e+01 1.000000000000e+00 
2.025342004513e+01 1.000000000000e+00 
2.122207598691e+01 1.000000000000e+00 
2.122357650034e+01 1.000000000000e+00 
2.122507701376e+01 1.000000000000e+00 
2.122657752719e+01 1.000000000000e+00 
2.122807804061e+01 1.000000000000e+00 
2.219740087726e+01 1.000000000000e+00 
2.219873466697e+01 1.000000000000e+00 
2.220006845668e+01 1.000000000000e+00 
2.220140224639e+01 1.000000000000e+00 
2.220273603610e+01 1.000000000000e+00 
2.317272576760e+01 1.000000000000e+00 
2.317389283360e+01 1.000000000000e+00 
2.317505989959e+01 1.000000000000e+00 
2.317622696559e+01 1.000000000000e+00 
2.317739403159e+01 1.000000000000e+00 
2.414805065794e+01 1.000000000000e+00 
2.414905100023e+01 1.000000000000e+00 
2.415005134251e+01 1.000000000000e+00 
2.415105168479e+01 1.000000000000e+00 
2.415205202708e+01 1.000000000000e+00 
2.512337554829e+01 1.000000000000e+00 
2.512420916686e+01 1.000000000000e+00 
2.512504278542e+01 1.000000000000e+00 
2.512587640399e+01 1.000000000000e+00 
2.512671002256e+01 1.000000000000e+00 
2.609870043863e+01 1.000000000000e+00 
2.609936733348e+01 1.000000000000e+00 
2.610003422834e+01 1.000000000000e+00 
2.610070112320e+01 1.000000000000e+00 
2.610136801805e+01 1.000000000000e+00 
2.707402532897e+01 1.000000000000e+00 
2.707452550011e+01 1.000000000000e+00 
2.707502567125e+01 1.000000000000e+00 
2.707552584240e+01 1.000000000000e+00 
2.707602601354e+01 1.000000000000e+00 
2.804935021931e+01 1.000000000000e+00 
2.804968366674e+01 1.000000000000e+00 
2.805001711417e+01 1.000000000000e+00 
2.805035056160e+01 1.000000000000e+00 
2.805068400903e+01 1.000000000000e+00 
2.902467510966e+01 1.000000000000e+00 
2.902484183337e+01 1.000000000000e+00 
2.902500855708e+01 1.000000000000e+00 
2.902517528080e+01 1.000000000000e+00 
2.902534200451e+01 1.000000000000e+00 
3.000000000000e+01 1.000000000000e+00 
3.000000000000e+01 1.000000000000e+00 
3.000000000000e+01 1.000000000000e+00 
3.000000000000e+01 1.000000000000e+00 
3.000000000000e+01 1.000000000000e+00 
3.002500000000e+01 9.876207709446e-01 
3.002500000000e+01 9.876207709446e-01 
3.002500000000e+01 9.876207709446e-01 
3.002500000000e+01 9.876207709446e-01 
3.002500000000e+01 9.876207709446e-01 
3.005000000000e+01 9.697756439369e-01 
3.005000000000e+01 9.697756439369e-01 
3.005000000000e+01 9.697756439369e-01 
3.005000000000e+01 9.697756439369e-01 
3.005000000000e+01 9.697756439369e-01 
3.007500000000e+01 9.507134089444e-01 
3.007500000000e+01 9.507134089444e-01 
3.007500000000e+01 9.507134089444e-01 
3.007500000000e+01 9.507134089444e-01 
3.007500000000e+01 9.507134089444e-01 
3.010000000000e+01 9.315621650298e-01 
3.010000000000e+01 9.315621650298e-01 
3.010000000000e+01 9.315621650298e-01 
3.010000000000e+01 9.315621650298e-01 
3.010000000000e+01 9.315621650298e-01 
3.012500000000e+01 9.128758324042e-01 
3.012500000000e+01 9.128758324042e-01 
3.012500000000e+01 9.128758324042e-01 
3.012500000000e+01 9.128758324042e-01 
3.012500000000e+01 9.128758324042e-01 
3.015000000000e+01 8.949248043380e-01 
3.015000000000e+01 8.949248043380e-01 
3.015000000000e+01 8.949248043380e-01 
3.015000000000e+01 8.949248043380e-01 
3.015000000000e+01 8.949248043380e-01 
3.017500000000e+01 8.778290027968e-01 
3.017500000000e+01 8.778290027968e-01 
3.017500000000e+01 8.778290027968e-01 
3.017500000000e+01 8.778290027968e-01 
3.017500000000e+01 8.778290027968e-01 
3.020000000000e+01 8.616255702900e-01 
3.020000000000e+01 8.616255702900e-01 
3.020000000000e+01 8.616255702900e-01 
3.020000000000e+01 8.616255702900e-01 
3.020000000000e+01 8.616255702900e-01 
3.022500000000e+01 8.463059583920e-01 
3.022500000000e+01 8.463059583920e-01 
3.022500000000e+01 8.463059583920e-01 
3.022500000000e+01 8.463059583920e-01 
3.022500000000e+01 8.463059583920e-01 
3.025000000000e+01 8.318370344398e-01 
3.025000000000e+01 8.318370344398e-01 
3.025000000000e+01 8.318370344398e-01 
3.025000000000e+01 8.318370344398e-01 
3.025000000000e+01 8.318370344398e-01 
3.027500000000e+01 8.181733156316e-01 
3.027500000000e+01 8.181733156316e-01 
3.027500000000e+01 8.181733156316e-01 
3.027500000000e+01 8.181733156316e-01 
3.027500000000e+01 8.181733156316e-01 
3.030000000000e+01 8.052640970350e-01 
3.030000000000e+01 8.052640970350e-01 
3.030000000000e+01 8.052640970350e-01 
3.030000000000e+01 8.052640970350e-01 
3.030000000000e+01 8.052640970350e-01 
3.032500000000e+01 7.930575753856e-01 
3.032500000000e+01 7.930575753856e-01 
3.032500000000e+01 7.930575753856e-01 
3.032500000000e+01 7.930575753856e-01 
3.032500000000e+01 7.930575753856e-01 
3.035000000000e+01 7.815031815402e-01 
3.035000000000e+01 7.815031815402e-01 
3.035000000000e+01 7.815031815402e-01 
3.035000000000e+01 7.815031815402e-01 
3.035000000000e+01 7.815031815402e-01 
3.037500000000e+01 7.705528376764e-01 
3.037500000000e+01 7.705528376764e-01 
3.037500000000e+01 7.705528376764e-01 
3.037500000000e+01 7.705528376764e-01 
3.037500000000e+01 7.705528376764e-01 
3.040000000000e+01 7.601615689674e-01 
3.040000000000e+01 7.601615689674e-01 
3.040000000000e+01 7.601615689674e-01 
3.040000000000e+01 7.601615689674e-01 
3.040000000000e+01 7.601615689674e-01 
3.042500000000e+01 7.502877306002e-01 
3.042500000000e+01 7.502877306002e-01 
3.042500000000e+01 7.502877306002e-01 
3.042500000000e+01 7.502877306002e-01 
3.042500000000e+01 7.502877306002e-01 
3.045000000000e+01 7.408930096824e-01 
3.045000000000e+01 7.408930096824e-01 
3.045000000000e+01 7.408930096824e-01 
3.045000000000e+01 7.408930096824e-01 
3.045000000000e+01 7.408930096824e-01 
3.047500000000e+01 7.319422999608e-01 
3.047500000000e+01 7.319422999608e-01 
3.047500000000e+01 7.319422999608e-01 
3.047500000000e+01 7.319422999608e-01 
3.047500000000e+01 7.319422999608e-01 
3.050000000000e+01 7.234035093991e-01 
3.050000000000e+01 7.234035093991e-01 
3.050000000000e+01 7.234035093991e-01 
3.050000000000e+01 7.234035093991e-01 
3.050000000000e+01 7.234035093991e-01 
3.052500000000e+01 7.152473371957e-01 
3.052500000000e+01 7.152473371957e-01 
3.052500000000e+01 7.152473371957e-01 
3.052500000000e+01 7.152473371957e-01 
3.052500000000e+01 7.152473371957e-01 
3.055000000000e+01 7.074470422112e-01 
3.055000000000e+01 7.074470422112e-01 
3.055000000000e+01 7.074470422112e-01 
3.055000000000e+01 7.074470422112e-01 
3.055000000000e+01 7.074470422112e-01 
3.057500000000e+01 6.999782156504e-01 
3.057500000000e+01 6.999782156504e-01 
3.057500000000e+01 6.999782156504e-01 
3.057500000000e+01 6.999782156504e-01 
3.057500000000e+01 6.999782156504e-01 
3.060000000000e+01 6.928185651596e-01 
3.060000000000e+01 6.928185651596e-01 
3.060000000000e+01 6.928185651596e-01 
3.060000000000e+01 6.928185651596e-01 
3.060000000000e+01 6.928185651596e-01 
3.062500000000e+01 6.859477139679e-01 
3.062500000000e+01 6.859477139679e-01 
3.062500000000e+01 6.859477139679e-01 
3.062500000000e+01 6.859477139679e-01 
3.062500000000e+01 6.859477139679e-01 
3.065000000000e+01 6.793470165436e-01 
3.065000000000e+01 6.793470165436e-01 
3.065000000000e+01 6.793470165436e-01 
3.065000000000e+01 6.793470165436e-01 
3.065000000000e+01 6.793470165436e-01 
3.067500000000e+01 6.729993909360e-01 
3.067500000000e+01 6.729993909360e-01 
3.067500000000e+01 6.729993909360e-01 
3.067500000000e+01 6.729993909360e-01 
3.067500000000e+01 6.729993909360e-01 
3.070000000000e+01 6.668891672206e-01 
3.070000000000e+01 6.668891672206e-01 
3.070000000000e+01 6.668891672206e-01 
3.070000000000e+01 6.668891672206e-01 
3.070000000000e+01 6.668891672206e-01 
3.072500000000e+01 6.610019510587e-01 
3.072500000000e+01 6.610019510587e-01 
3.072500000000e+01 6.610019510587e-01 
3.072500000000e+01 6.610019510587e-01 
3.072500000000e+01 6.610019510587e-01 
3.075000000000e+01 6.553245011865e-01 
3.075000000000e+01 6.553245011865e-01 
3.075000000000e+01 6.553245011865e-01 
3.075000000000e+01 6.553245011865e-01 
3.075000000000e+01 6.553245011865e-01 
3.077500000000e+01 6.498446195878e-01 
3.077500000000e+01 6.498446195878e-01 
3.077500000000e+01 6.498446195878e-01 
3.077500000000e+01 6.498446195878e-01 
3.077500000000e+01 6.498446195878e-01 
3.080000000000e+01 6.445510531188e-01 
3.080000000000e+01 6.445510531188e-01 
3.080000000000e+01 6.445510531188e-01 
3.080000000000e+01 6.445510531188e-01 
3.080000000000e+01 6.445510531188e-01 
3.082500000000e+01 6.394334054150e-01 
3.082500000000e+01 6.394334054150e-01 
3.082500000000e+01 6.394334054150e-01 
3.082500000000e+01 6.394334054150e-01 
3.082500000000e+01 6.394334054150e-01 
3.085000000000e+01 6.344820579917e-01 
3.085000000000e+01 6.344820579917e-01 
3.085000000000e+01 6.344820579917e-01 
3.085000000000e+01 6.344820579917e-01 
3.085000000000e+01 6.344820579917e-01 
3.087500000000e+01 6.296880995462e-01 
3.087500000000e+01 6.296880995462e-01 
3.087500000000e+01 6.296880995462e-01 
3.087500000000e+01 6.296880995462e-01 
3.087500000000e+01 6.296880995462e-01 
3.090000000000e+01 6.250432625624e-01 
3.090000000000e+01 6.250432625624e-01 
3.090000000000e+01 6.250432625624e-01 
3.090000000000e+01 6.250432625624e-01 
3.090000000000e+01 6.250432625624e-01 
3.092500000000e+01 6.205398664126e-01 
3.092500000000e+01 6.205398664126e-01 
3.092500000000e+01 6.205398664126e-01 
3.092500000000e+01 6.205398664126e-01 
3.092500000000e+01 6.205398664126e-01 
3.095000000000e+01 6.161707662369e-01 
3.095000000000e+01 6.161707662369e-01 
3.095000000000e+01 6.161707662369e-01 
3.095000000000e+01 6.161707662369e-01 
3.095000000000e+01 6.161707662369e-01 
3.097500000000e+01 6.119293069613e-01 
3.097500000000e+01 6.119293069613e-01 
3.097500000000e+01 6.119293069613e-01 
3.097500000000e+01 6.119293069613e-01 
3.097500000000e+01 6.119293069613e-01 
3.100000000000e+01 6.078092818871e-01 
3.100000000000e+01 6.078092818871e-01 
3.100000000000e+01 6.078092818871e-01 
3.100000000000e+01 6.078092818871e-01 
3.100000000000e+01 6.078092818871e-01 
3.102500000000e+01 6.038048953494e-01 
3.102500000000e+01 6.038048953494e-01 
3.102500000000e+01 6.038048953494e-01 
3.102500000000e+01 6.038048953494e-01 
3.102500000000e+01 6.038048953494e-01 
3.105000000000e+01 5.999107290013e-01 
3.105000000000e+01 5.999107290013e-01 
3.105000000000e+01 5.999107290013e-01 
3.105000000000e+01 5.999107290013e-01 
3.105000000000e+01 5.999107290013e-01 
3.107500000000e+01 5.961217113309e-01 
3.107500000000e+01 5.961217113309e-01 
3.107500000000e+01 5.961217113309e-01 
3.107500000000e+01 5.961217113309e-01 
3.107500000000e+01 5.961217113309e-01 
3.110000000000e+01 5.924330900627e-01 
3.110000000000e+01 5.924330900627e-01 
3.110000000000e+01 5.924330900627e-01 
3.110000000000e+01 5.924330900627e-01 
3.110000000000e+01 5.924330900627e-01 
3.112500000000e+01 5.888404071392e-01 
3.112500000000e+01 5.888404071392e-01 
3.112500000000e+01 5.888404071392e-01 
3.112500000000e+01 5.888404071392e-01 
3.112500000000e+01 5.888404071392e-01 
3.115000000000e+01 5.853394760078e-01 
3.115000000000e+01 5.853394760078e-01 
3.115000000000e+01 5.853394760078e-01 
3.115000000000e+01 5.853394760078e-01 
3.115000000000e+01 5.853394760078e-01 
3.117500000000e+01 5.819263609758e-01 
3.117500000000e+01 5.819263609758e-01 
3.117500000000e+01 5.819263609758e-01 
3.117500000000e+01 5.819263609758e-01 
3.117500000000e+01 5.819263609758e-01 
3.120000000000e+01 5.785973584173e-01 
3.120000000000e+01 5.785973584173e-01 
3.120000000000e+01 5.785973584173e-01 
3.120000000000e+01 5.785973584173e-01 
3.120000000000e+01 5.785973584173e-01 
3.122500000000e+01 5.753489796460e-01 
3.122500000000e+01 5.753489796460e-01 
3.122500000000e+01 5.753489796460e-01 
3.122500000000e+01 5.753489796460e-01 
3.122500000000e+01 5.753489796460e-01 
3.125000000000e+01 5.721779352840e-01 
3.125000000000e+01 5.721779352840e-01 
3.125000000000e+01 5.721779352840e-01 
3.125000000000e+01 5.721779352840e-01 
3.125000000000e+01 5.721779352840e-01 
3.127500000000e+01 5.690811209785e-01 
3.127500000000e+01 5.690811209785e-01 
3.127500000000e+01 5.690811209785e-01 
3.127500000000e+01 5.690811209785e-01 
3.127500000000e+01 5.690811209785e-01 
3.130000000000e+01 5.660556043336e-01 
3.130000000000e+01 5.660556043336e-01 
3.130000000000e+01 5.660556043336e-01 
3.130000000000e+01 5.660556043336e-01 
3.130000000000e+01 5.660556043336e-01 
3.132500000000e+01 5.630986129391e-01 
3.132500000000e+01 5.630986129391e-01 
3.132500000000e+01 5.630986129391e-01 
3.132500000000e+01 5.630986129391e-01 
3.132500000000e+01 5.630986129391e-01 
3.135000000000e+01 5.602075233904e-01 
3.135000000000e+01 5.602075233904e-01 
3.135000000000e+01 5.602075233904e-01 
3.135000000000e+01 5.602075233904e-01 
3.135000000000e+01 5.602075233904e-01 
3.137500000000e+01 5.573798512060e-01 
3.137500000000e+01 5.573798512060e-01 
3.137500000000e+01 5.573798512060e-01 
3.137500000000e+01 5.573798512060e-01 
3.137500000000e+01 5.573798512060e-01 
3.140000000000e+01 5.546132415581e-01 
3.140000000000e+01 5.546132415581e-01 
3.140000000000e+01 5.546132415581e-01 
3.140000000000e+01 5.546132415581e-01 
3.140000000000e+01 5.546132415581e-01 
3.142500000000e+01 5.519054607414e-01 
3.142500000000e+01 5.519054607414e-01 
3.142500000000e+01 5.519054607414e-01 
3.142500000000e+01 5.519054607414e-01 
3.142500000000e+01 5.519054607414e-01 
3.145000000000e+01 5.492543883110e-01 
3.145000000000e+01 5.492543883110e-01 
3.145000000000e+01 5.492543883110e-01 
3.145000000000e+01 5.492543883110e-01 
3.145000000000e+01 5.492543883110e-01 
3.147500000000e+01 5.466580098318e-01 
3.147500000000e+01 5.466580098318e-01 
3.147500000000e+01 5.466580098318e-01 
3.147500000000e+01 5.466580098318e-01 
3.147500000000e+01 5.466580098318e-01 
3.150000000000e+01 5.441144101810e-01 
3.150000000000e+01 5.441144101810e-01 
3.150000000000e+01 5.441144101810e-01 
3.150000000000e+01 5.441144101810e-01 
3.150000000000e+01 5.441144101810e-01 
3.152500000000e+01 5.416217673588e-01 
3.152500000000e+01 5.416217673588e-01 
3.152500000000e+01 5.416217673588e-01 
3.152500000000e+01 5.416217673588e-01 
3.152500000000e+01 5.416217673588e-01 
3.155000000000e+01 5.391783467591e-01 
3.155000000000e+01 5.391783467591e-01 
3.155000000000e+01 5.391783467591e-01 
3.155000000000e+01 5.391783467591e-01 
3.155000000000e+01 5.391783467591e-01 
3.157500000000e+01 5.367824958643e-01 
3.157500000000e+01 5.367824958643e-01 
3.157500000000e+01 5.367824958643e-01 
3.157500000000e+01 5.367824958643e-01 
3.157500000000e+01 5.367824958643e-01 
3.160000000000e+01 5.344326393247e-01 
3.160000000000e+01 5.344326393247e-01 
3.160000000000e+01 5.344326393247e-01 
3.160000000000e+01 5.344326393247e-01 
3.160000000000e+01 5.344326393247e-01 
3.162500000000e+01 5.321272743928e-01 
3.162500000000e+01 5.321272743928e-01 
3.162500000000e+01 5.321272743928e-01 
3.162500000000e+01 5.321272743928e-01 
3.162500000000e+01 5.321272743928e-01 
3.165000000000e+01 5.298649666811e-01 
3.165000000000e+01 5.298649666811e-01 
3.165000000000e+01 5.298649666811e-01 
3.165000000000e+01 5.298649666811e-01 
3.165000000000e+01 5.298649666811e-01 
3.167500000000e+01 5.276443462180e-01 
3.167500000000e+01 5.276443462180e-01 
3.167500000000e+01 5.276443462180e-01 
3.167500000000e+01 5.276443462180e-01 
3.167500000000e+01 5.276443462180e-01 
3.170000000000e+01 5.254641037767e-01 
3.170000000000e+01 5.254641037767e-01 
3.170000000000e+01 5.254641037767e-01 
3.170000000000e+01 5.254641037767e-01 
3.170000000000e+01 5.254641037767e-01 
3.172500000000e+01 5.233229874560e-01 
3.172500000000e+01 5.233229874560e-01 
3.172500000000e+01 5.233229874560e-01 
3.172500000000e+01 5.233229874560e-01 
3.172500000000e+01 5.233229874560e-01 
3.175000000000e+01 5.212197994921e-01 
3.175000000000e+01 5.212197994921e-01 
3.175000000000e+01 5.212197994921e-01 
3.175000000000e+01 5.212197994921e-01 
3.175000000000e+01 5.212197994921e-01 
3.177500000000e+01 5.191533932842e-01 
3.177500000000e+01 5.191533932842e-01 
3.177500000000e+01 5.191533932842e-01 
3.177500000000e+01 5.191533932842e-01 
3.177500000000e+01 5.191533932842e-01 
3.180000000000e+01 5.171226706164e-01 
3.180000000000e+01 5.171226706164e-01 
3.180000000000e+01 5.171226706164e-01 
3.180000000000e+01 5.171226706164e-01 
3.180000000000e+01 5.171226706164e-01 
3.182500000000e+01 5.151265790614e-01 
3.182500000000e+01 5.151265790614e-01 
3.182500000000e+01 5.151265790614e-01 
3.182500000000e+01 5.151265790614e-01 
3.182500000000e+01 5.151265790614e-01 
3.185000000000e+01 5.131641095520e-01 
3.185000000000e+01 5.131641095520e-01 
3.185000000000e+01 5.131641095520e-01 
3.185000000000e+01 5.131641095520e-01 
3.185000000000e+01 5.131641095520e-01 
3.187500000000e+01 5.112342941078e-01 
3.187500000000e+01 5.112342941078e-01 
3.187500000000e+01 5.112342941078e-01 
3.187500000000e+01 5.112342941078e-01 
3.187500000000e+01 5.112342941078e-01 
3.190000000000e+01 5.093362037054e-01 
3.190000000000e+01 5.093362037054e-01 
3.190000000000e+01 5.093362037054e-01 
3.190000000000e+01 5.093362037054e-01 
3.190000000000e+01 5.093362037054e-01 
3.192500000000e+01 5.074689462822e-01 
3.192500000000e+01 5.074689462822e-01 
3.192500000000e+01 5.074689462822e-01 
3.192500000000e+01 5.074689462822e-01 
3.192500000000e+01 5.074689462822e-01 
3.195000000000e+01 5.056316648631e-01 
3.195000000000e+01 5.056316648631e-01 
3.195000000000e+01 5.056316648631e-01 
3.195000000000e+01 5.056316648631e-01 
3.195000000000e+01 5.056316648631e-01 
3.197500000000e+01 5.038235358020e-01 
3.197500000000e+01 5.038235358020e-01 
3.197500000000e+01 5.038235358020e-01 
3.197500000000e+01 5.038235358020e-01 
3.197500000000e+01 5.038235358020e-01 
3.200000000000e+01 5.015547939280e-01 
3.200000000000e+01 5.015571121471e-01 
3.200000000000e+01 5.015582696762e-01 
3.200000000000e+01 5.015559535640e-01 
3.200000000000e+01 5.015594261504e-01 
3.274805065795e+01 4.583237941974e-01 
3.274905100024e+01 4.582752873638e-01 
3.275005134252e+01 4.582268021717e-01 
3.275105168480e+01 4.581783386050e-01 
3.275205202709e+01 4.581298966475e-01 
3.349610131591e+01 4.283731276056e-01 
3.349810200047e+01 4.283032552743e-01 
3.350010268504e+01 4.282334345146e-01 
3.350210336961e+01 4.281636652609e-01 
3.350410405418e+01 4.280939474474e-01 
3.424415197386e+01 4.056622801395e-01 
3.424715300071e+01 4.055811464591e-01 
3.425015402756e+01 4.055000874520e-01 
3.425315505441e+01 4.054191029986e-01 
3.425615608126e+01 4.053381929799e-01 
3.499220263182e+01 3.876104625373e-01 
3.499620400095e+01 3.875230804830e-01 
3.500020537008e+01 3.874357899989e-01 
3.500420673922e+01 3.873485909177e-01 
3.500820810835e+01 3.872614830727e-01 
3.574025328977e+01 3.727613847055e-01 
3.574525500119e+01 3.726704713401e-01 
3.575025671260e+01 3.725796618490e-01 
3.575525842402e+01 3.724889560254e-01 
3.576026013544e+01 3.723983536628e-01 
 TITLE = "Profiles along polylines"
 VARIABLES = "DIST" "SATURATION1" 
 ZONE T="TIME=1.797693134862e+308"
7.402532897699e-01 1.000000000000e+00 
7.452550011872e-01 1.000000000000e+00 
7.502567126046e-01 1.000000000000e+00 
7.552584240220e-01 1.000000000000e+00 
7.602601354394e-01 1.000000000000e+00 
1.715578180111e+00 1.000000000000e+00 
1.720413167814e+00 1.000000000000e+00 
1.725248155518e+00 1.000000000000e+00 
1.730083143221e+00 1.000000000000e+00 
1.734918130925e+00 1.000000000000e+00 
2.690903070451e+00 1.000000000000e+00 
2.695571334441e+00 1.000000000000e+00 
2.700239598430e+00 1.000000000000e+00 
2.704907862420e+00 1.000000000000e+00 
2.709576126409e+00 1.000000000000e+00 
3.666227960792e+00 1.000000000000e+00 
3.670729501068e+00 1.000000000000e+00 
3.675231041344e+00 1.000000000000e+00 
3.679732581619e+00 1.000000000000e+00 
3.684234121895e+00 1.000000000000e+00 
4.641552851134e+00 1.000000000000e+00 
4.645887667695e+00 1.000000000000e+00 
4.650222484257e+00 1.000000000000e+00 
4.654557300819e+00 1.000000000000e+00 
4.658892117381e+00 1.000000000000e+00 
5.616877741474e+00 1.000000000000e+00 
5.621045834322e+00 1.000000000000e+00 
5.625213927169e+00 1.000000000000e+00 
5.629382020017e+00 1.000000000000e+00 
5.633550112865e+00 1.000000000000e+00 
6.592202631814e+00 1.000000000000e+00 
6.596204000948e+00 1.000000000000e+00 
6.600205370082e+00 1.000000000000e+00 
6.604206739216e+00 1.000000000000e+00 
6.608208108350e+00 1.000000000000e+00 
7.567527522154e+00 1.000000000000e+00 
7.571362167574e+00 1.000000000000e+00 
7.575196812994e+00 1.000000000000e+00 
7.579031458414e+00 1.000000000000e+00 
7.582866103834e+00 1.000000000000e+00 
8.542852412494e+00 1.000000000000e+00 
8.546520334200e+00 1.000000000000e+00 
8.550188255906e+00 1.000000000000e+00 
8.553856177613e+00 1.000000000000e+00 
8.557524099319e+00 1.000000000000e+00 
9.518177302832e+00 1.000000000000e+00 
9.521678500824e+00 1.000000000000e+00 
9.525179698816e+00 1.000000000000e+00 
9.528680896808e+00 1.000000000000e+00 
9.532182094801e+00 1.000000000000e+00 
1.049350219317e+01 1.000000000000e+00 
1.049683666745e+01 1.000000000000e+00 
1.050017114173e+01 1.000000000000e+00 
1.050350561600e+01 1.000000000000e+00 
1.050684009028e+01 1.000000000000e+00 
1.146882708351e+01 1.000000000000e+00 
1.147199483407e+01 1.000000000000e+00 
1.147516258464e+01 1.000000000000e+00 
1.147833033520e+01 1.000000000000e+00 
1.148149808576e+01 1.000000000000e+00 
1.244415197384e+01 1.000000000000e+00 
1.244715300069e+01 1.000000000000e+00 
1.245015402755e+01 1.000000000000e+00 
1.245315505440e+01 1.000000000000e+00 
1.245615608125e+01 1.000000000000e+00 
1.341947686418e+01 1.000000000000e+00 
1.342231116732e+01 1.000000000000e+00 
1.342514547045e+01 1.000000000000e+00 
1.342797977359e+01 1.000000000000e+00 
1.343081407673e+01 1.000000000000e+00 
1.439480175452e+01 1.000000000000e+00 
1.439746933394e+01 1.000000000000e+00 
1.440013691336e+01 1.000000000000e+00 
1.440280449279e+01 1.000000000000e+00 
1.440547207221e+01 1.000000000000e+00 
1.537012664486e+01 1.000000000000e+00 
1.537262750057e+01 1.000000000000e+00 
1.537512835627e+01 1.000000000000e+00 
1.537762921198e+01 1.000000000000e+00 
1.538013006769e+01 1.000000000000e+00 
1.634545153520e+01 1.000000000000e+00 
1.634778566719e+01 1.000000000000e+00 
1.635011979919e+01 1.000000000000e+00 
1.635245393118e+01 1.000000000000e+00 
1.635478806318e+01 1.000000000000e+00 
1.732077642554e+01 1.000000000000e+00 
1.732294383382e+01 1.000000000000e+00 
1.732511124210e+01 1.000000000000e+00 
1.732727865038e+01 1.000000000000e+00 
1.732944605867e+01 1.000000000000e+00 
1.829610131589e+01 1.000000000000e+00 
1.829810200045e+01 1.000000000000e+00 
1.830010268502e+01 1.000000000000e+00 
1.830210336959e+01 1.000000000000e+00 
1.830410405415e+01 1.000000000000e+00 
1.927142620623e+01 1.000000000000e+00 
1.927326016708e+01 1.000000000000e+00 
1.927509412793e+01 1.000000000000e+00 
1.927692808879e+01 1.000000000000e+00 
1.927876204964e+01 1.000000000000e+00 
2.024675109657e+01 1.000000000000e+00 
2.024841833371e+01 1.000000000000e+00 
2.025008557085e+01 1.000000000000e+00 
2.025175280799e+01 1.000000000000e+00 
2.025342004513e+01 1.000000000000e+00 
2.122207598691e+01 1.000000000000e+00 
2.122357650034e+01 1.000000000000e+00 
2.122507701376e+01 1.000000000000e+00 
2.122657752719e+01 1.000000000000e+00 
2.122807804061e+01 1.000000000000e+00 
2.219740087726e+01 1.000000000000e+00 
2.219873466697e+01 1.000000000000e+00 
2.220006845668e+01 1.000000000000e+00 
2.220140224639e+01 1.000000000000e+00 
2.220273603610e+01 1.000000000000e+00 
2.317272576760e+01 1.000000000000e+00 
2.317389283360e+01 1.000000000000e+00 
2.317505989959e+01 1.000000000000e+00 
2.317622696559e+01 1.000000000000e+00 
2.317739403159e+01 1.000000000000e+00 
2.414805065794e+01 1.000000000000e+00 
2.414905100023e+01 1.000000000000e+00 
2.415005134251e+01 1.000000000000e+00 
2.415105168479e+01 1.000000000000e+00 
2.415205202708e+01 1.000000000000e+00 
2.512337554829e+01 1.000000000000e+00 
2.512420916686e+01 1.000000000000e+00 
2.512504278542e+01 1.000000000000e+00 
2.512587640399e+01 1.000000000000e+00 
2.512671002256e+01 1.000000000000e+00 
2.609870043863e+01 1.000000000000e+00 
2.609936733348e+01 1.000000000000e+00 
2.610003422834e+01 1.000000000000e+00 
2.610070112320e+01 1.000000000000e+00 
2.610136801805e+01 1.000000000000e+00 
2.707402532897e+01 1.000000000000e+00 
2.707452550011e+01 1.000000000000e+00 
2.707502567125e+01 1.000000000000e+00 
2.707552584240e+01 1.000000000000e+00 
2.707602601354e+01 1.000000000000e+00 
2.804935021931e+01 1.000000000000e+00 
2.804968366674e+01 1.000000000000e+00 
2.805001711417e+01 1.000000000000e+00 
2.805035056160e+01 1.000000000000e+00 
2.805068400903e+01 1.000000000000e+00 
2.902467510966e+01 1.000000000000e+00 
2.902484183337e+01 1.000000000000e+00 
2.902500855708e+01 1.000000000000e+00 
2.902517528080e+01 1.000000000000e+00 
2.902534200451e+01 1.000000000000e+00 
3.000000000000e+01 1.000000000000e+00 
3.000000000000e+01 1.000000000000e+00 
3.000000000000e+01 1.000000000000e+00 
3.000000000000e+01 1.000000000000e+00 
3.000000000000e+01 1.000000000000e+00 
3.002500000000e+01 1.000000000000e+00 
3.002500000000e+01 1.000000000000e+00 
3.002500000000e+01 1.000000000000e+00 
3.002500000000e+01 1.000000000000e+00 
3.002500000000e+01 1.000000000000e+00 
3.005000000000e+01 1.000000000000e+00 
3.005000000000e+01 1.000000000000e+00 
3.005000000000e+01 1.000000000000e+00 
3.005000000000e+01 1.000000000000e+00 
3.005000000000e+01 1.000000000000e+00 
3.007500000000e+01 1.000000000000e+00 
3.007500000000e+01 1.000000000000e+00 
3.007500000000e+01 1.000000000000e+00 
3.007500000000e+01 1.000000000000e+00 
3.007500000000e+01 1.000000000000e+00 
3.010000000000e+01 1.000000000000e+00 
3.010000000000e+01 1.000000000000e+00 
3.010000000000e+01 1.000000000000e+00 
3.010000000000e+01 1.000000000000e+00 
3.010000000000e+01 1.000000000000e+00 
3.012500000000e+01 1.000000000000e+00 
3.012500000000e+01 1.000000000000e+00 
3.012500000000e+01 1.000000000000e+00 
3.012500000000e+01 1.000000000000e+00 
3.012500000000e+01 1.000000000000e+00 
3.015000000000e+01 1.000000000000e+00 
3.015000000000e+01 1.000000000000e+00 
3.015000000000e+01 1.000000000000e+00 