 TITLE = "Profiles along polylines"
 VARIABLES = "DIST" "SATURATION1" 
 ZONE T="TIME=0.000000000000e+00"
1.412166038596e+01 1.000000000000e+00 
1.416164260448e+01 1.000000000000e+00 
1.420162482299e+01 1.000000000000e+00 
1.424160704151e+01 1.000000000000e+00 
1.428158926003e+01 1.000000000000e+00 
1.465093837310e+01 1.000000000000e+00 
1.468958785100e+01 1.000000000000e+00 
1.472823732889e+01 1.000000000000e+00 
1.476688680679e+01 1.000000000000e+00 
1.480553628469e+01 1.000000000000e+00 
1.518021636023e+01 1.000000000000e+00 
1.521753309751e+01 1.000000000000e+00 
1.525484983479e+01 1.000000000000e+00 
1.529216657208e+01 1.000000000000e+00 
1.532948330936e+01 1.000000000000e+00 
1.570949434737e+01 1.000000000000e+00 
1.574547834403e+01 1.000000000000e+00 
1.578146234069e+01 1.000000000000e+00 
1.581744633736e+01 1.000000000000e+00 
1.585343033402e+01 1.000000000000e+00 
1.623877233450e+01 1.000000000000e+00 
1.627342359055e+01 1.000000000000e+00 
1.630807484659e+01 1.000000000000e+00 
1.634272610264e+01 1.000000000000e+00 
1.637737735869e+01 1.000000000000e+00 
1.676805032163e+01 1.000000000000e+00 
1.680136883706e+01 1.000000000000e+00 
1.683468735249e+01 1.000000000000e+00 
1.686800586792e+01 1.000000000000e+00 
1.690132438335e+01 1.000000000000e+00 
1.729732830877e+01 1.000000000000e+00 
1.732931408358e+01 1.000000000000e+00 
1.736129985839e+01 1.000000000000e+00 
1.739328563321e+01 1.000000000000e+00 
1.742527140802e+01 1.000000000000e+00 
1.782660629590e+01 1.000000000000e+00 
1.785725933010e+01 1.000000000000e+00 
1.788791236429e+01 1.000000000000e+00 
1.791856539849e+01 1.000000000000e+00 
1.794921843269e+01 1.000000000000e+00 
1.835588428304e+01 1.000000000000e+00 
1.838520457662e+01 1.000000000000e+00 
1.841452487019e+01 1.000000000000e+00 
1.844384516377e+01 1.000000000000e+00 
1.847316545735e+01 1.000000000000e+00 
1.888516227017e+01 1.000000000000e+00 
1.891314982313e+01 1.000000000000e+00 
1.894113737609e+01 1.000000000000e+00 
1.896912492906e+01 1.000000000000e+00 
1.899711248202e+01 1.000000000000e+00 
1.941444025730e+01 1.000000000000e+00 
1.944109506965e+01 1.000000000000e+00 
1.946774988199e+01 1.000000000000e+00 
1.949440469434e+01 1.000000000000e+00 
1.952105950668e+01 1.000000000000e+00 
1.994371824444e+01 1.000000000000e+00 
1.996904031617e+01 1.000000000000e+00 
1.999436238789e+01 1.000000000000e+00 
2.001968445962e+01 1.000000000000e+00 
2.004500653135e+01 1.000000000000e+00 
2.047299623157e+01 1.000000000000e+00 
2.049698556268e+01 1.000000000000e+00 
2.052097489379e+01 1.000000000000e+00 
2.054496422490e+01 1.000000000000e+00 
2.056895355601e+01 1.000000000000e+00 
2.100227421871e+01 1.000000000000e+00 
2.102493080920e+01 1.000000000000e+00 
2.104758739969e+01 1.000000000000e+00 
2.107024399018e+01 1.000000000000e+00 
2.109290058068e+01 1.000000000000e+00 
2.153155220584e+01 1.000000000000e+00 
2.155287605571e+01 1.000000000000e+00 
2.157419990559e+01 1.000000000000e+00 
2.159552375547e+01 1.000000000000e+00 
2.161684760534e+01 1.000000000000e+00 
2.206083019297e+01 1.000000000000e+00 
2.208082130223e+01 1.000000000000e+00 
2.210081241149e+01 1.000000000000e+00 
2.212080352075e+01 1.000000000000e+00 
2.214079463001e+01 1.000000000000e+00 
2.259010818011e+01 1.000000000000e+00 
2.260876654875e+01 1.000000000000e+00 
2.262742491739e+01 1.000000000000e+00 
2.264608328603e+01 1.000000000000e+00 
2.266474165467e+01 1.000000000000e+00 
2.311938616724e+01 1.000000000000e+00 
2.313671179527e+01 1.000000000000e+00 
2.315403742329e+01 1.000000000000e+00 
2.317136305131e+01 1.000000000000e+00 
2.318868867934e+01 1.000000000000e+00 
2.364866415438e+01 1.000000000000e+00 
2.366465704178e+01 1.000000000000e+00 
2.368064992919e+01 1.000000000000e+00 
2.369664281660e+01 1.000000000000e+00 
2.371263570400e+01 1.000000000000e+00 
2.417794214151e+01 1.000000000000e+00 
2.419260228830e+01 1.000000000000e+00 
2.420726243509e+01 1.000000000000e+00 
2.422192258188e+01 1.000000000000e+00 
2.423658272867e+01 1.000000000000e+00 
2.470722012865e+01 1.000000000000e+00 
2.472054753482e+01 1.000000000000e+00 
2.473387494099e+01 1.000000000000e+00 
2.474720234716e+01 1.000000000000e+00 
2.476052975334e+01 1.000000000000e+00 
2.523649811578e+01 1.000000000000e+00 
2.524849278134e+01 1.000000000000e+00 
2.526048744689e+01 1.000000000000e+00 
2.527248211245e+01 1.000000000000e+00 
2.528447677800e+01 1.000000000000e+00 
2.576577610292e+01 1.000000000000e+00 
2.577643802786e+01 1.000000000000e+00 
2.578709995279e+01 1.000000000000e+00 
2.579776187773e+01 1.000000000000e+00 
2.580842380267e+01 1.000000000000e+00 
2.629505409005e+01 1.000000000000e+00 
2.630438327437e+01 1.000000000000e+00 
2.631371245869e+01 1.000000000000e+00 
2.632304164302e+01 1.000000000000e+00 
2.633237082734e+01 1.000000000000e+00 
2.682433207719e+01 1.000000000000e+00 
2.683232852089e+01 1.000000000000e+00 
2.684032496460e+01 1.000000000000e+00 
2.684832140830e+01 1.000000000000e+00 
2.685631785200e+01 1.000000000000e+00 
2.735361006432e+01 1.000000000000e+00 
2.736027376741e+01 1.000000000000e+00 
2.736693747050e+01 1.000000000000e+00 
2.737360117358e+01 1.000000000000e+00 
2.738026487667e+01 1.000000000000e+00 
2.788288805146e+01 1.000000000000e+00 
2.788821901393e+01 1.000000000000e+00 
2.789354997640e+01 1.000000000000e+00 
2.789888093887e+01 1.000000000000e+00 
2.790421190133e+01 1.000000000000e+00 
2.841216603859e+01 1.000000000000e+00 
2.841616426045e+01 1.000000000000e+00 
2.842016248230e+01 1.000000000000e+00 
2.842416070415e+01 1.000000000000e+00 
2.842815892600e+01 1.000000000000e+00 
2.894144402573e+01 1.000000000000e+00 
2.894410950696e+01 1.000000000000e+00 
2.894677498820e+01 1.000000000000e+00 
2.894944046943e+01 1.000000000000e+00 
2.895210595067e+01 1.000000000000e+00 
2.947072201286e+01 1.000000000000e+00 
2.947205475348e+01 1.000000000000e+00 
2.947338749410e+01 1.000000000000e+00 
2.947472023472e+01 1.000000000000e+00 
2.947605297533e+01 1.000000000000e+00 
3.000000000000e+01 1.000000000000e+00 
3.000000000000e+01 1.000000000000e+00 
3.000000000000e+01 1.000000000000e+00 
3.000000000000e+01 1.000000000000e+00 
3.000000000000e+01 1.000000000000e+00 
3.002500000000e+01 9.876207709446e-01 
3.002500000000e+01 9.876207709446e-01 
3.002500000000e+01 9.876207709446e-01 
3.002500000000e+01 9.876207709446e-01 
3.002500000000e+01 9.876207709446e-01 
3.005000000000e+01 9.697756439369e-01 
3.005000000000e+01 9.697756439369e-01 
3.005000000000e+01 9.697756439369e-01 
3.005000000000e+01 9.697756439369e-01 
3.005000000000e+01 9.697756439369e-01 
3.007500000000e+01 9.507134089444e-01 
3.007500000000e+01 9.507134089444e-01 
3.007500000000e+01 9.507134089444e-01 
3.007500000000e+01 9.507134089444e-01 
3.007500000000e+01 9.507134089444e-01 
3.010000000000e+01 9.315621650298e-01 
3.010000000000e+01 9.315621650298e-01 
3.010000000000e+01 9.315621650298e-01 
3.010000000000e+01 9.315621650298e-01 
3.010000000000e+01 9.315621650298e-01 
3.012500000000e+01 9.128758324042e-01 
3.012500000000e+01 9.128758324042e-01 
3.012500000000e+01 9.128758324042e-01 
3.012500000000e+01 9.128758324042e-01 
3.012500000000e+01 9.128758324042e-01 
3.015000000000e+01 8.949248043380e-01 
3.015000000000e+01 8.949248043380e-01 
3.015000000000e+01 8.949248043380e-01 
3.015000000000e+01 8.949248043380e-01 
3.015000000000e+01 8.949248043380e-01 
3.017500000000e+01 8.778290027968e-01 
3.017500000000e+01 8.778290027968e-01 
3.017500000000e+01 8.778290027968e-01 
3.017500000000e+01 8.778290027968e-01 
3.017500000000e+01 8.778290027968e-01 
3.020000000000e+01 8.616255702900e-01 
3.020000000000e+01 8.616255702900e-01 
3.020000000000e+01 8.616255702900e-01 
3.020000000000e+01 8.616255702900e-01 
3.020000000000e+01 8.616255702900e-01 
3.022500000000e+01 8.463059583920e-01 
3.022500000000e+01 8.463059583920e-01 
3.022500000000e+01 8.463059583920e-01 
3.022500000000e+01 8.463059583920e-01 
3.022500000000e+01 8.463059583920e-01 
3.025000000000e+01 8.318370344398e-01 
3.025000000000e+01 8.318370344398e-01 
3.025000000000e+01 8.318370344398e-01 
3.025000000000e+01 8.318370344398e-01 
3.025000000000e+01 8.318370344398e-01 
3.027500000000e+01 8.181733156316e-01 
3.027500000000e+01 8.181733156316e-01 
3.027500000000e+01 8.181733156316e-01 
3.027500000000e+01 8.181733156316e-01 
3.027500000000e+01 8.181733156316e-01 
3.030000000000e+01 8.052640970350e-01 
3.030000000000e+01 8.052640970350e-01 
3.030000000000e+01 8.052640970350e-01 
3.030000000000e+01 8.052640970350e-01 
3.030000000000e+01 8.052640970350e-01 
3.032500000000e+01 7.930575753856e-01 
3.032500000000e+01 7.930575753856e-01 
3.032500000000e+01 7.930575753856e-01 
3.032500000000e+01 7.930575753856e-01 
3.032500000000e+01 7.930575753856e-01 
3.035000000000e+01 7.815031815402e-01 
3.035000000000e+01 7.815031815402e-01 
3.035000000000e+01 7.815031815402e-01 
3.035000000000e+01 7.815031815402e-01 
3.035000000000e+01 7.815031815402e-01 
3.037500000000e+01 7.705528376764e-01 
3.037500000000e+01 7.705528376764e-01 
3.037500000000e+01 7.705528376764e-01 
3.037500000000e+01 7.705528376764e-01 
3.037500000000e+01 7.705528376764e-01 
3.040000000000e+01 7.601615689674e-01 
3.040000000000e+01 7.601615689674e-01 
3.040000000000e+01 7.601615689674e-01 
3.040000000000e+01 7.601615689674e-01 
3.040000000000e+01 7.601615689674e-01 
3.042500000000e+01 7.502877306002e-01 
3.042500000000e+01 7.502877306002e-01 
3.042500000000e+01 7.502877306002e-01 
3.042500000000e+01 7.502877306002e-01 
3.042500000000e+01 7.502877306002e-01 
3.045000000000e+01 7.408930096824e-01 
3.045000000000e+01 7.408930096824e-01 
3.045000000000e+01 7.408930096824e-01 
3.045000000000e+01 7.408930096824e-01 
3.045000000000e+01 7.408930096824e-01 
3.047500000000e+01 7.319422999608e-01 
3.047500000000e+01 7.319422999608e-01 
3.047500000000e+01 7.319422999608e-01 
3.047500000000e+01 7.319422999608e-01 
3.047500000000e+01 7.319422999608e-01 
3.050000000000e+01 7.234035093991e-01 
3.050000000000e+01 7.234035093991e-01 
3.050000000000e+01 7.234035093991e-01 
3.050000000000e+01 7.234035093991e-01 
3.050000000000e+01 7.234035093991e-01 
3.052500000000e+01 7.152473371957e-01 
3.052500000000e+01 7.152473371957e-01 
3.052500000000e+01 7.152473371957e-01 
3.052500000000e+01 7.152473371957e-01 
3.052500000000e+01 7.152473371957e-01 
3.055000000000e+01 7.074470422112e-01 
3.055000000000e+01 7.074470422112e-01 
3.055000000000e+01 7.074470422112e-01 
3.055000000000e+01 7.074470422112e-01 
3.055000000000e+01 7.074470422112e-01 
3.057500000000e+01 6.999782156504e-01 
3.057500000000e+01 6.999782156504e-01 
3.057500000000e+01 6.999782156504e-01 
3.057500000000e+01 6.999782156504e-01 
3.057500000000e+01 6.999782156504e-01 
3.060000000000e+01 6.928185651596e-01 
3.060000000000e+01 6.928185651596e-01 
3.060000000000e+01 6.928185651596e-01 
3.060000000000e+01 6.928185651596e-01 
3.060000000000e+01 6.928185651596e-01 
3.062500000000e+01 6.859477139679e-01 
3.062500000000e+01 6.859477139679e-01 
3.062500000000e+01 6.859477139679e-01 
3.062500000000e+01 6.859477139679e-01 
3.062500000000e+01 6.859477139679e-01 
3.065000000000e+01 6.793470165436e-01 
3.065000000000e+01 6.793470165436e-01 
3.065000000000e+01 6.793470165436e-01 
3.065000000000e+01 6.793470165436e-01 
3.065000000000e+01 6.793470165436e-01 
3.067500000000e+01 6.729993909360e-01 
3.067500000000e+01 6.729993909360e-01 
3.067500000000e+01 6.729993909360e-01 
3.067500000000e+01 6.729993909360e-01 
3.067500000000e+01 6.729993909360e-01 
3.070000000000e+01 6.668891672206e-01 
3.070000000000e+01 6.668891672206e-01 
3.070000000000e+01 6.668891672206e-01 
3.070000000000e+01 6.668891672206e-01 
3.070000000000e+01 6.668891672206e-01 
3.072500000000e+01 6.610019510587e-01 
3.072500000000e+01 6.610019510587e-01 
3.072500000000e+01 6.610019510587e-01 
3.072500000000e+01 6.610019510587e-01 
3.072500000000e+01 6.610019510587e-01 
3.075000000000e+01 6.553245011865e-01 
3.075000000000e+01 6.553245011865e-01 
3.075000000000e+01 6.553245011865e-01 
3.075000000000e+01 6.553245011865e-01 
3.075000000000e+01 6.553245011865e-01 
3.077500000000e+01 6.498446195878e-01 
3.077500000000e+01 6.498446195878e-01 
3.077500000000e+01 6.498446195878e-01 
3.077500000000e+01 6.498446195878e-01 
3.077500000000e+01 6.498446195878e-01 
3.080000000000e+01 6.445510531188e-01 
3.080000000000e+01 6.445510531188e-01 
3.080000000000e+01 6.445510531188e-01 
3.080000000000e+01 6.445510531188e-01 
3.080000000000e+01 6.445510531188e-01 
3.082500000000e+01 6.394334054150e-01 
3.082500000000e+01 6.394334054150e-01 
3.082500000000e+01 6.394334054150e-01 
3.082500000000e+01 6.394334054150e-01 
3.082500000000e+01 6.394334054150e-01 
3.085000000000e+01 6.344820579917e-01 
3.085000000000e+01 6.344820579917e-01 
3.085000000000e+01 6.344820579917e-01 
3.085000000000e+01 6.344820579917e-01 
3.085000000000e+01 6.344820579917e-01 
3.087500000000e+01 6.296880995462e-01 
3.087500000000e+01 6.296880995462e-01 
3.087500000000e+01 6.296880995462e-01 
3.087500000000e+01 6.296880995462e-01 
3.087500000000e+01 6.296880995462e-01 
3.090000000000e+01 6.250432625624e-01 
3.090000000000e+01 6.250432625624e-01 
3.090000000000e+01 6.250432625624e-01 
3.090000000000e+01 6.250432625624e-01 
3.090000000000e+01 6.250432625624e-01 
3.092500000000e+01 6.205398664126e-01 
3.092500000000e+01 6.205398664126e-01 
3.092500000000e+01 6.205398664126e-01 
3.092500000000e+01 6.205398664126e-01 
3.092500000000e+01 6.205398664126e-01 
3.095000000000e+01 6.161707662369e-01 
3.095000000000e+01 6.161707662369e-01 
3.095000000000e+01 6.161707662369e-01 
3.095000000000e+01 6.161707662369e-01 
3.095000000000e+01 6.161707662369e-01 
3.097500000000e+01 6.119293069613e-01 
3.097500000000e+01 6.119293069613e-01 
3.097500000000e+01 6.119293069613e-01 
3.097500000000e+01 6.119293069613e-01 
3.097500000000e+01 6.119293069613e-01 
3.100000000000e+01 6.078092818871e-01 
3.100000000000e+01 6.078092818871e-01 
3.100000000000e+01 6.078092818871e-01 
3.100000000000e+01 6.078092818871e-01 
3.100000000000e+01 6.078092818871e-01 
3.102500000000e+01 6.038048953494e-01 
3.102500000000e+01 6.038048953494e-01 
3.102500000000e+01 6.038048953494e-01 
3.102500000000e+01 6.038048953494e-01 
3.102500000000e+01 6.038048953494e-01 
3.105000000000e+01 5.999107290013e-01 
3.105000000000e+01 5.999107290013e-01 
3.105000000000e+01 5.999107290013e-01 
3.105000000000e+01 5.999107290013e-01 
3.105000000000e+01 5.999107290013e-01 
3.107500000000e+01 5.961217113309e-01 
3.107500000000e+01 5.961217113309e-01 
3.107500000000e+01 5.961217113309e-01 
3.107500000000e+01 5.961217113309e-01 
3.107500000000e+01 5.961217113309e-01 
3.110000000000e+01 5.924330900627e-01 
3.110000000000e+01 5.924330900627e-01 
3.110000000000e+01 5.924330900627e-01 
3.110000000000e+01 5.924330900627e-01 
3.110000000000e+01 5.924330900627e-01 
3.112500000000e+01 5.888404071392e-01 
3.112500000000e+01 5.888404071392e-01 
3.112500000000e+01 5.888404071392e-01 
3.112500000000e+01 5.888404071392e-01 
3.112500000000e+01 5.888404071392e-01 
3.115000000000e+01 5.853394760078e-01 
3.115000000000e+01 5.853394760078e-01 
3.115000000000e+01 5.853394760078e-01 
3.115000000000e+01 5.853394760078e-01 
3.115000000000e+01 5.853394760078e-01 
3.117500000000e+01 5.819263609758e-01 
3.117500000000e+01 5.819263609758e-01 
3.117500000000e+01 5.819263609758e-01 
3.117500000000e+01 5.819263609758e-01 
3.117500000000e+01 5.819263609758e-01 
3.120000000000e+01 5.785973584173e-01 
3.120000000000e+01 5.785973584173e-01 
3.120000000000e+01 5.785973584173e-01 
3.120000000000e+01 5.785973584173e-01 
3.120000000000e+01 5.785973584173e-01 
3.122500000000e+01 5.753489796460e-01 
3.122500000000e+01 5.753489796460e-01 
3.122500000000e+01 5.753489796460e-01 
3.122500000000e+01 5.753489796460e-01 
3.122500000000e+01 5.753489796460e-01 
3.125000000000e+01 5.721779352840e-01 
3.125000000000e+01 5.721779352840e-01 
3.125000000000e+01 5.721779352840e-01 
3.125000000000e+01 5.721779352840e-01 
3.125000000000e+01 5.721779352840e-01 
3.127500000000e+01 5.690811209785e-01 
3.127500000000e+01 5.690811209785e-01 
3.127500000000e+01 5.690811209785e-01 
3.127500000000e+01 5.690811209785e-01 
3.127500000000e+01 5.690811209785e-01 
3.130000000000e+01 5.660556043336e-01 
3.130000000000e+01 5.660556043336e-01 
3.130000000000e+01 5.660556043336e-01 
3.130000000000e+01 5.660556043336e-01 
3.130000000000e+01 5.660556043336e-01 
3.132500000000e+01 5.630986129391e-01 
3.132500000000e+01 5.630986129391e-01 
3.132500000000e+01 5.630986129391e-01 
3.132500000000e+01 5.630986129391e-01 
3.132500000000e+01 5.630986129391e-01 
3.135000000000e+01 5.602075233904e-01 
3.135000000000e+01 5.602075233904e-01 
3.135000000000e+01 5.602075233904e-01 
3.135000000000e+01 5.602075233904e-01 
3.135000000000e+01 5.602075233904e-01 
3.137500000000e+01 5.573798512060e-01 
3.137500000000e+01 5.573798512060e-01 
3.137500000000e+01 5.573798512060e-01 
3.137500000000e+01 5.573798512060e-01 
3.137500000000e+01 5.573798512060e-01 
3.140000000000e+01 5.546132415581e-01 
3.140000000000e+01 5.546132415581e-01 
3.140000000000e+01 5.546132415581e-01 
3.140000000000e+01 5.546132415581e-01 
3.140000000000e+01 5.546132415581e-01 
3.142500000000e+01 5.519054607414e-01 
3.142500000000e+01 5.519054607414e-01 
3.142500000000e+01 5.519054607414e-01 
3.142500000000e+01 5.519054607414e-01 
3.142500000000e+01 5.519054607414e-01 
3.145000000000e+01 5.492543883110e-01 
3.145000000000e+01 5.492543883110e-01 
3.145000000000e+01 5.492543883110e-01 
3.145000000000e+01 5.492543883110e-01 
3.145000000000e+01 5.492543883110e-01 
3.147500000000e+01 5.466580098318e-01 
3.147500000000e+01 5.466580098318e-01 
3.147500000000e+01 5.466580098318e-01 
3.147500000000e+01 5.466580098318e-01 
3.147500000000e+01 5.466580098318e-01 
3.150000000000e+01 5.441144101810e-01 
3.150000000000e+01 5.441144101810e-01 
3.150000000000e+01 5.441144101810e-01 
3.150000000000e+01 5.441144101810e-01 
3.150000000000e+01 5.441144101810e-01 
3.152500000000e+01 5.416217673588e-01 
3.152500000000e+01 5.416217673588e-01 
3.152500000000e+01 5.416217673588e-01 
3.152500000000e+01 5.416217673588e-01 
3.152500000000e+01 5.416217673588e-01 
3.155000000000e+01 5.391783467591e-01 
3.155000000000e+01 5.391783467591e-01 
3.155000000000e+01 5.391783467591e-01 
3.155000000000e+01 5.391783467591e-01 
3.155000000000e+01 5.391783467591e-01 
3.157500000000e+01 5.367824958643e-01 
3.157500000000e+01 5.367824958643e-01 
3.157500000000e+01 5.367824958643e-01 
3.157500000000e+01 5.367824958643e-01 
3.157500000000e+01 5.367824958643e-01 
3.160000000000e+01 5.344326393247e-01 
3.160000000000e+01 5.344326393247e-01 
3.160000000000e+01 5.344326393247e-01 
3.160000000000e+01 5.344326393247e-01 
3.160000000000e+01 5.344326393247e-01 
3.162500000000e+01 5.321272743928e-01 
3.162500000000e+01 5.321272743928e-01 
3.162500000000e+01 5.321272743928e-01 
3.162500000000e+01 5.321272743928e-01 
3.162500000000e+01 5.321272743928e-01 
3.165000000000e+01 5.298649666811e-01 
3.165000000000e+01 5.298649666811e-01 
3.165000000000e+01 5.298649666811e-01 
3.165000000000e+01 5.298649666811e-01 
3.165000000000e+01 5.298649666811e-01 
3.167500000000e+01 5.276443462180e-01 
3.167500000000e+01 5.276443462180e-01 
3.167500000000e+01 5.276443462180e-01 
3.167500000000e+01 5.276443462180e-01 
3.167500000000e+01 5.276443462180e-01 
3.170000000000e+01 5.254641037767e-01 
3.170000000000e+01 5.254641037767e-01 
3.170000000000e+01 5.254641037767e-01 
3.170000000000e+01 5.254641037767e-01 
3.170000000000e+01 5.254641037767e-01 
3.172500000000e+01 5.233229874560e-01 
3.172500000000e+01 5.233229874560e-01 
3.172500000000e+01 5.233229874560e-01 
3.172500000000e+01 5.233229874560e-01 
3.172500000000e+01 5.233229874560e-01 
3.175000000000e+01 5.212197994921e-01 
3.175000000000e+01 5.212197994921e-01 
3.175000000000e+01 5.212197994921e-01 
3.175000000000e+01 5.212197994921e-01 
3.175000000000e+01 5.212197994921e-01 
3.177500000000e+01 5.191533932842e-01 
3.177500000000e+01 5.191533932842e-01 
3.177500000000e+01 5.191533932842e-01 
3.177500000000e+01 5.191533932842e-01 
3.177500000000e+01 5.191533932842e-01 
3.180000000000e+01 5.171226706164e-01 
3.180000000000e+01 5.171226706164e-01 
3.180000000000e+01 5.171226706164e-01 
3.180000000000e+01 5.171226706164e-01 
3.180000000000e+01 5.171226706164e-01 
3.182500000000e+01 5.151265790614e-01 
3.182500000000e+01 5.151265790614e-01 
3.182500000000e+01 5.151265790614e-01 
3.182500000000e+01 5.151265790614e-01 
3.182500000000e+01 5.151265790614e-01 
3.185000000000e+01 5.131641095520e-01 
3.185000000000e+01 5.131641095520e-01 
3.185000000000e+01 5.131641095520e-01 
3.185000000000e+01 5.131641095520e-01 
3.185000000000e+01 5.131641095520e-01 
3.187500000000e+01 5.112342941078e-01 
3.187500000000e+01 5.112342941078e-01 
3.187500000000e+01 5.112342941078e-01 
3.187500000000e+01 5.112342941078e-01 
3.187500000000e+01 5.112342941078e-01 
3.190000000000e+01 5.093362037054e-01 
3.190000000000e+01 5.093362037054e-01 
3.190000000000e+01 5.093362037054e-01 
3.190000000000e+01 5.093362037054e-01 
3.190000000000e+01 5.093362037054e-01 
3.192500000000e+01 5.074689462822e-01 
3.192500000000e+01 5.074689462822e-01 
3.192500000000e+01 5.074689462822e-01 
3.192500000000e+01 5.074689462822e-01 
3.192500000000e+01 5.074689462822e-01 
3.195000000000e+01 5.056316648631e-01 
3.195000000000e+01 5.056316648631e-01 
3.195000000000e+01 5.056316648631e-01 
3.195000000000e+01 5.056316648631e-01 
3.195000000000e+01 5.056316648631e-01 
3.197500000000e+01 5.038235358020e-01 
3.197500000000e+01 5.038235358020e-01 
3.197500000000e+01 5.038235358020e-01 
3.197500000000e+01 5.038235358020e-01 
3.197500000000e+01 5.038235358020e-01 
3.200000000000e+01 4.963996486311e-01 
3.200000000000e+01 4.964358318681e-01 
3.200000000000e+01 4.964539138914e-01 
3.200000000000e+01 4.964177434301e-01 
3.200000000000e+01 4.964719894461e-01 
3.542433207719e+01 3.752665595617e-01 
3.543232852090e+01 3.751036761576e-01 
3.544032496460e+01 3.749411062753e-01 
3.544832140830e+01 3.747788488781e-01 
3.545631785201e+01 3.746169029340e-01 
3.884866415438e+01 3.297208593148e-01 
3.886465704179e+01 3.295561539179e-01 
3.888064992920e+01 3.293918426401e-01 
3.889664281660e+01 3.292279238394e-01 
3.891263570401e+01 3.290643958835e-01 
4.227299623158e+01 3.020396680011e-01 
4.229698556269e+01 3.018799489490e-01 
4.232097489380e+01 3.017206431781e-01 
4.234496422491e+01 3.015617488230e-01 
4.236895355602e+01 3.014032640300e-01 
4.569732830877e+01 2.828984172079e-01 
4.572931408358e+01 2.827448727800e-01 
4.576129985840e+01 2.825917427334e-01 
4.579328563321e+01 2.824390251163e-01 
4.582527140802e+01 2.822867179902e-01 
4.912166038596e+01 2.685498725891e-01 
4.916164260448e+01 2.684022216168e-01 
4.920162482299e+01 2.682549797721e-01 
4.924160704151e+01 2.681081450762e-01 
4.928158926003e+01 2.679617155640e-01 
 TITLE = "Profiles along polylines"
 VARIABLES = "DIST" "SATURATION1" 
 ZONE T="TIME=1.797693134862e+308"
1.412166038596e+01 1.000000000000e+00 
1.416164260448e+01 1.000000000000e+00 
1.420162482299e+01 1.000000000000e+00 
1.424160704151e+01 1.000000000000e+00 
1.428158926003e+01 1.000000000000e+00 
1.465093837310e+01 1.000000000000e+00 
1.468958785100e+01 1.000000000000e+00 
1.472823732889e+01 1.000000000000e+00 
1.476688680679e+01 1.000000000000e+00 
1.480553628469e+01 1.000000000000e+00 
1.518021636023e+01 1.000000000000e+00 
1.521753309751e+01 1.000000000000e+00 
1.525484983479e+01 1.000000000000e+00 
1.529216657208e+01 1.000000000000e+00 
1.532948330936e+01 1.000000000000e+00 
1.570949434737e+01 1.000000000000e+00 
1.574547834403e+01 1.000000000000e+00 
1.578146234069e+01 1.000000000000e+00 
1.581744633736e+01 1.000000000000e+00 
1.585343033402e+01 1.000000000000e+00 
1.623877233450e+01 1.000000000000e+00 
1.627342359055e+01 1.000000000000e+00 
1.630807484659e+01 1.000000000000e+00 
1.634272610264e+01 1.000000000000e+00 
1.637737735869e+01 1.000000000000e+00 
1.676805032163e+01 1.000000000000e+00 
1.680136883706e+01 1.000000000000e+00 
1.683468735249e+01 1.000000000000e+00 
1.686800586792e+01 1.000000000000e+00 
1.690132438335e+01 1.000000000000e+00 
1.729732830877e+01 1.000000000000e+00 
1.732931408358e+01 1.000000000000e+00 
1.736129985839e+01 1.000000000000e+00 
1.739328563321e+01 1.000000000000e+00 
1.742527140802e+01 1.000000000000e+00 
1.782660629590e+01 1.000000000000e+00 
1.785725933010e+01 1.000000000000e+00 
1.788791236429e+01 1.000000000000e+00 
1.791856539849e+01 1.000000000000e+00 
1.794921843269e+01 1.000000000000e+00 
1.835588428304e+01 1.000000000000e+00 
1.838520457662e+01 1.000000000000e+00 
1.841452487019e+01 1.000000000000e+00 
1.844384516377e+01 1.000000000000e+00 
1.847316545735e+01 1.000000000000e+00 
1.888516227017e+01 1.000000000000e+00 
1.891314982313e+01 1.000000000000e+00 
1.894113737609e+01 1.000000000000e+00 
1.896912492906e+01 1.000000000000e+00 
1.899711248202e+01 1.000000000000e+00 
1.941444025730e+01 1.000000000000e+00 
1.944109506965e+01 1.000000000000e+00 
1.946774988199e+01 1.000000000000e+00 
1.949440469434e+01 1.000000000000e+00 
1.952105950668e+01 1.000000000000e+00 
1.994371824444e+01 1.000000000000e+00 
1.996904031617e+01 1.000000000000e+00 
1.999436238789e+01 1.000000000000e+00 
2.001968445962e+01 1.000000000000e+00 
2.004500653135e+01 1.000000000000e+00 
2.047299623157e+01 1.000000000000e+00 
2.049698556268e+01 1.000000000000e+00 
2.052097489379e+01 1.000000000000e+00 
2.054496422490e+01 1.000000000000e+00 
2.056895355601e+01 1.000000000000e+00 
2.100227421871e+01 1.000000000000e+00 
2.102493080920e+01 1.000000000000e+00 
2.104758739969e+01 1.000000000000e+00 
2.107024399018e+01 1.000000000000e+00 
2.109290058068e+01 1.000000000000e+00 
2.153155220584e+01 1.000000000000e+00 
2.155287605571e+01 1.000000000000e+00 
2.157419990559e+01 1.000000000000e+00 
2.159552375547e+01 1.000000000000e+00 
2.161684760534e+01 1.000000000000e+00 
2.206083019297e+01 1.000000000000e+00 
2.208082130223e+01 1.000000000000e+00 
2.210081241149e+01 1.000000000000e+00 
2.212080352075e+01 1.000000000000e+00 
2.214079463001e+01 1.000000000000e+00 
2.259010818011e+01 1.000000000000e+00 
2.260876654875e+01 1.000000000000e+00 
2.262742491739e+01 1.000000000000e+00 
2.264608328603e+01 1.000000000000e+00 
2.266474165467e+01 1.000000000000e+00 
2.311938616724e+01 1.000000000000e+00 
2.313671179527e+01 1.000000000000e+00 
2.315403742329e+01 1.000000000000e+00 
2.317136305131e+01 1.000000000000e+00 
2.318868867934e+01 1.000000000000e+00 
2.364866415438e+01 1.000000000000e+00 
2.366465704178e+01 1.000000000000e+00 
2.368064992919e+01 1.000000000000e+00 
2.369664281660e+01 1.000000000000e+00 
2.371263570400e+01 1.000000000000e+00 
2.417794214151e+01 1.000000000000e+00 
2.419260228830e+01 1.000000000000e+00 
2.420726243509e+01 1.000000000000e+00 
2.422192258188e+01 1.000000000000e+00 
2.423658272867e+01 1.000000000000e+00 
2.470722012865e+01 1.000000000000e+00 
2.472054753482e+01 1.000000000000e+00 
2.473387494099e+01 1.000000000000e+00 
2.474720234716e+01 1.000000000000e+00 
2.476052975334e+01 1.000000000000e+00 
2.523649811578e+01 1.000000000000e+00 
2.524849278134e+01 1.000000000000e+00 
2.526048744689e+01 1.000000000000e+00 
2.527248211245e+01 1.000000000000e+00 
2.528447677800e+01 1.000000000000e+00 
2.576577610292e+01 1.000000000000e+00 
2.577643802786e+01 1.000000000000e+00 
2.578709995279e+01 1.000000000000e+00 
2.579776187773e+01 1.000000000000e+00 
2.580842380267e+01 1.000000000000e+00 
2.629505409005e+01 1.000000000000e+00 
2.630438327437e+01 1.000000000000e+00 
2.631371245869e+01 1.000000000000e+00 
2.632304164302e+01 1.000000000000e+00 
2.633237082734e+01 1.000000000000e+00 
2.682433207719e+01 1.000000000000e+00 
2.683232852089e+01 1.000000000000e+00 
2.684032496460e+01 1.000000000000e+00 
2.684832140830e+01 1.000000000000e+00 
2.685631785200e+01 1.000000000000e+00 
2.735361006432e+01 1.000000000000e+00 
2.736027376741e+01 1.000000000000e+00 
2.736693747050e+01 1.000000000000e+00 
2.737360117358e+01 1.000000000000e+00 
2.738026487667e+01 1.000000000000e+00 
2.788288805146e+01 1.000000000000e+00 
2.788821901393e+01 1.000000000000e+00 
2.789354997640e+01 1.000000000000e+00 
2.789888093887e+01 1.000000000000e+00 
2.790421190133e+01 1.000000000000e+00 
2.841216603859e+01 1.000000000000e+00 
2.841616426045e+01 1.000000000000e+00 
2.842016248230e+01 1.000000000000e+00 
2.842416070415e+01 1.000000000000e+00 
2.842815892600e+01 1.000000000000e+00 
2.894144402573e+01 1.000000000000e+00 
2.894410950696e+01 1.000000000000e+00 
2.894677498820e+01 1.000000000000e+00 
2.894944046943e+01 1.000000000000e+00 
2.895210595067e+01 1.000000000000e+00 
2.947072201286e+01 1.000000000000e+00 
2.947205475348e+01 1.000000000000e+00 
2.947338749410e+01 1.000000000000e+00 
2.947472023472e+01 1.000000000000e+00 
2.947605297533e+01 1.000000000000e+00 
3.000000000000e+01 1.000000000000e+00 
3.000000000000e+01 1.000000000000e+00 
3.000000000000e+01 1.000000000000e+00 
3.000000000000e+01 1.000000000000e+00 
3.000000000000e+01 1.000000000000e+00 
3.002500000000e+01 1.000000000000e+00 
3.002500000000e+01 1.000000000000e+00 
3.002500000000e+01 1.000000000000e+00 
3.002500000000e+01 1.000000000000e+00 
3.002500000000e+01 1.000000000000e+00 
3.005000000000e+01 1.000000000000e+00 
3.005000000000e+01 1.000000000000e+00 
3.005000000000e+01 1.000000000000e+00 
3.005000000000e+01 1.000000000000e+00 
3.005000000000e+01 1.000000000000e+00 
3.007500000000e+01 1.000000000000e+00 
3.007500000000e+01 1.000000000000e+00 
3.007500000000e+01 1.000000000000e+00 
3.007500000000e+01 1.000000000000e+00 
3.007500000000e+01 1.000000000000e+00 
3.010000000000e+01 1.000000000000e+00 
3.010000000000e+01 1.000000000000e+00 
3.010000000000e+01 1.000000000000e+00 
3.010000000000e+01 1.000000000000e+00 
3.010000000000e+01 1.000000000000e+00 
3.012500000000e+01 1.000000000000e+00 
3.012500000000e+01 1.000000000000e+00 
3.012500000000e+01 1.000000000000e+00 
3.012500000000e+01 1.000000000000e+00 
3.012500000000e+01 1.000000000000e+00 
3.015000000000e+01 1.000000000000e+00 
3.015000000000e+01 1.000000000000e+00 
3.015000000000e+01 1.000000000000e+00 