 TITLE = "Profiles along polylines"
 VARIABLES = "DIST" "SATURATION1" 
 ZONE T="TIME=0.000000000000e+00"
5.163681526086e+00 1.000000000000e+00 
5.183684621620e+00 1.000000000000e+00 
5.203687717155e+00 1.000000000000e+00 
5.223690812689e+00 1.000000000000e+00 
5.243693908223e+00 1.000000000000e+00 
5.991558808550e+00 1.000000000000e+00 
6.010895134233e+00 1.000000000000e+00 
6.030231459916e+00 1.000000000000e+00 
6.049567785599e+00 1.000000000000e+00 
6.068904111282e+00 1.000000000000e+00 
6.819436091013e+00 1.000000000000e+00 
6.838105646845e+00 1.000000000000e+00 
6.856775202677e+00 1.000000000000e+00 
6.875444758509e+00 1.000000000000e+00 
6.894114314341e+00 1.000000000000e+00 
7.647313373477e+00 1.000000000000e+00 
7.665316159458e+00 1.000000000000e+00 
7.683318945439e+00 1.000000000000e+00 
7.701321731420e+00 1.000000000000e+00 
7.719324517401e+00 1.000000000000e+00 
8.475190655941e+00 1.000000000000e+00 
8.492526672071e+00 1.000000000000e+00 
8.509862688201e+00 1.000000000000e+00 
8.527198704330e+00 1.000000000000e+00 
8.544534720460e+00 1.000000000000e+00 
9.303067938404e+00 1.000000000000e+00 
9.319737184683e+00 1.000000000000e+00 
9.336406430961e+00 1.000000000000e+00 
9.353075677240e+00 1.000000000000e+00 
9.369744923519e+00 1.000000000000e+00 
1.013094522087e+01 1.000000000000e+00 
1.014694769729e+01 1.000000000000e+00 
1.016295017372e+01 1.000000000000e+00 
1.017895265015e+01 1.000000000000e+00 
1.019495512658e+01 1.000000000000e+00 
1.095882250333e+01 1.000000000000e+00 
1.097415820991e+01 1.000000000000e+00 
1.098949391648e+01 1.000000000000e+00 
1.100482962306e+01 1.000000000000e+00 
1.102016532964e+01 1.000000000000e+00 
1.178669978579e+01 1.000000000000e+00 
1.180136872252e+01 1.000000000000e+00 
1.181603765924e+01 1.000000000000e+00 
1.183070659597e+01 1.000000000000e+00 
1.184537553269e+01 1.000000000000e+00 
1.261457706826e+01 1.000000000000e+00 
1.262857923513e+01 1.000000000000e+00 
1.264258140200e+01 1.000000000000e+00 
1.265658356888e+01 1.000000000000e+00 
1.267058573575e+01 1.000000000000e+00 
1.344245435072e+01 1.000000000000e+00 
1.345578974774e+01 1.000000000000e+00 
1.346912514476e+01 1.000000000000e+00 
1.348246054179e+01 1.000000000000e+00 
1.349579593881e+01 1.000000000000e+00 
1.427033163318e+01 1.000000000000e+00 
1.428300026035e+01 1.000000000000e+00 
1.429566888752e+01 1.000000000000e+00 
1.430833751469e+01 1.000000000000e+00 
1.432100614187e+01 1.000000000000e+00 
1.509820891564e+01 1.000000000000e+00 
1.511021077296e+01 1.000000000000e+00 
1.512221263028e+01 1.000000000000e+00 
1.513421448760e+01 1.000000000000e+00 
1.514621634492e+01 1.000000000000e+00 
1.592608619810e+01 1.000000000000e+00 
1.593742128557e+01 1.000000000000e+00 
1.594875637304e+01 1.000000000000e+00 
1.596009146051e+01 1.000000000000e+00 
1.597142654798e+01 1.000000000000e+00 
1.675396348056e+01 1.000000000000e+00 
1.676463179818e+01 1.000000000000e+00 
1.677530011580e+01 1.000000000000e+00 
1.678596843342e+01 1.000000000000e+00 
1.679663675104e+01 1.000000000000e+00 
1.758184076302e+01 1.000000000000e+00 
1.759184231079e+01 1.000000000000e+00 
1.760184385856e+01 1.000000000000e+00 
1.761184540633e+01 1.000000000000e+00 
1.762184695409e+01 1.000000000000e+00 
1.840971804549e+01 1.000000000000e+00 
1.841905282340e+01 1.000000000000e+00 
1.842838760132e+01 1.000000000000e+00 
1.843772237924e+01 1.000000000000e+00 
1.844705715715e+01 1.000000000000e+00 
1.923759532795e+01 1.000000000000e+00 
1.924626333602e+01 1.000000000000e+00 
1.925493134408e+01 1.000000000000e+00 
1.926359935215e+01 1.000000000000e+00 
1.927226736021e+01 1.000000000000e+00 
2.006547261042e+01 1.000000000000e+00 
2.007347384863e+01 1.000000000000e+00 
2.008147508685e+01 1.000000000000e+00 
2.008947632506e+01 1.000000000000e+00 
2.009747756327e+01 1.000000000000e+00 
2.089334989288e+01 1.000000000000e+00 
2.090068436125e+01 1.000000000000e+00 
2.090801882961e+01 1.000000000000e+00 
2.091535329797e+01 1.000000000000e+00 
2.092268776633e+01 1.000000000000e+00 
2.172122717535e+01 1.000000000000e+00 
2.172789487386e+01 1.000000000000e+00 
2.173456257237e+01 1.000000000000e+00 
2.174123027088e+01 1.000000000000e+00 
2.174789796940e+01 1.000000000000e+00 
2.254910445781e+01 1.000000000000e+00 
2.255510538647e+01 1.000000000000e+00 
2.256110631513e+01 1.000000000000e+00 
2.256710724380e+01 1.000000000000e+00 
2.257310817246e+01 1.000000000000e+00 
2.337698174028e+01 1.000000000000e+00 
2.338231589909e+01 1.000000000000e+00 
2.338765005790e+01 1.000000000000e+00 
2.339298421671e+01 1.000000000000e+00 
2.339831837552e+01 1.000000000000e+00 
2.420485902274e+01 1.000000000000e+00 
2.420952641170e+01 1.000000000000e+00 
2.421419380066e+01 1.000000000000e+00 
2.421886118962e+01 1.000000000000e+00 
2.422352857858e+01 1.000000000000e+00 
2.503273630521e+01 1.000000000000e+00 
2.503673692432e+01 1.000000000000e+00 
2.504073754342e+01 1.000000000000e+00 
2.504473816253e+01 1.000000000000e+00 
2.504873878164e+01 1.000000000000e+00 
2.586061358767e+01 1.000000000000e+00 
2.586394743693e+01 1.000000000000e+00 
2.586728128619e+01 1.000000000000e+00 
2.587061513544e+01 1.000000000000e+00 
2.587394898470e+01 1.000000000000e+00 
2.668849087014e+01 1.000000000000e+00 
2.669115794954e+01 1.000000000000e+00 
2.669382502895e+01 1.000000000000e+00 
2.669649210835e+01 1.000000000000e+00 
2.669915918776e+01 1.000000000000e+00 
2.751636815260e+01 1.000000000000e+00 
2.751836846216e+01 1.000000000000e+00 
2.752036877171e+01 1.000000000000e+00 
2.752236908127e+01 1.000000000000e+00 
2.752436939082e+01 1.000000000000e+00 
2.834424543507e+01 1.000000000000e+00 
2.834557897477e+01 1.000000000000e+00 
2.834691251447e+01 1.000000000000e+00 
2.834824605418e+01 1.000000000000e+00 
2.834957959388e+01 1.000000000000e+00 
2.917212271753e+01 1.000000000000e+00 
2.917278948739e+01 1.000000000000e+00 
2.917345625724e+01 1.000000000000e+00 
2.917412302709e+01 1.000000000000e+00 
2.917478979694e+01 1.000000000000e+00 
3.000000000000e+01 1.000000000000e+00 
3.000000000000e+01 1.000000000000e+00 
3.000000000000e+01 1.000000000000e+00 
3.000000000000e+01 1.000000000000e+00 
3.000000000000e+01 1.000000000000e+00 
3.002500000000e+01 9.876207709446e-01 
3.002500000000e+01 9.876207709446e-01 
3.002500000000e+01 9.876207709446e-01 
3.002500000000e+01 9.876207709446e-01 
3.002500000000e+01 9.876207709446e-01 
3.005000000000e+01 9.697756439369e-01 
3.005000000000e+01 9.697756439369e-01 
3.005000000000e+01 9.697756439369e-01 
3.005000000000e+01 9.697756439369e-01 
3.005000000000e+01 9.697756439369e-01 
3.007500000000e+01 9.507134089444e-01 
3.007500000000e+01 9.507134089444e-01 
3.007500000000e+01 9.507134089444e-01 
3.007500000000e+01 9.507134089444e-01 
3.007500000000e+01 9.507134089444e-01 
3.010000000000e+01 9.315621650298e-01 
3.010000000000e+01 9.315621650298e-01 
3.010000000000e+01 9.315621650298e-01 
3.010000000000e+01 9.315621650298e-01 
3.010000000000e+01 9.315621650298e-01 
3.012500000000e+01 9.128758324042e-01 
3.012500000000e+01 9.128758324042e-01 
3.012500000000e+01 9.128758324042e-01 
3.012500000000e+01 9.128758324042e-01 
3.012500000000e+01 9.128758324042e-01 
3.015000000000e+01 8.949248043380e-01 
3.015000000000e+01 8.949248043380e-01 
3.015000000000e+01 8.949248043380e-01 
3.015000000000e+01 8.949248043380e-01 
3.015000000000e+01 8.949248043380e-01 
3.017500000000e+01 8.778290027968e-01 
3.017500000000e+01 8.778290027968e-01 
3.017500000000e+01 8.778290027968e-01 
3.017500000000e+01 8.778290027968e-01 
3.017500000000e+01 8.778290027968e-01 
3.020000000000e+01 8.616255702900e-01 
3.020000000000e+01 8.616255702900e-01 
3.020000000000e+01 8.616255702900e-01 
3.020000000000e+01 8.616255702900e-01 
3.020000000000e+01 8.616255702900e-01 
3.022500000000e+01 8.463059583920e-01 
3.022500000000e+01 8.463059583920e-01 
3.022500000000e+01 8.463059583920e-01 
3.022500000000e+01 8.463059583920e-01 
3.022500000000e+01 8.463059583920e-01 
3.025000000000e+01 8.318370344398e-01 
3.025000000000e+01 8.318370344398e-01 
3.025000000000e+01 8.318370344398e-01 
3.025000000000e+01 8.318370344398e-01 
3.025000000000e+01 8.318370344398e-01 
3.027500000000e+01 8.181733156316e-01 
3.027500000000e+01 8.181733156316e-01 
3.027500000000e+01 8.181733156316e-01 
3.027500000000e+01 8.181733156316e-01 
3.027500000000e+01 8.181733156316e-01 
3.030000000000e+01 8.052640970350e-01 
3.030000000000e+01 8.052640970350e-01 
3.030000000000e+01 8.052640970350e-01 
3.030000000000e+01 8.052640970350e-01 
3.030000000000e+01 8.052640970350e-01 
3.032500000000e+01 7.930575753856e-01 
3.032500000000e+01 7.930575753856e-01 
3.032500000000e+01 7.930575753856e-01 
3.032500000000e+01 7.930575753856e-01 
3.032500000000e+01 7.930575753856e-01 
3.035000000000e+01 7.815031815402e-01 
3.035000000000e+01 7.815031815402e-01 
3.035000000000e+01 7.815031815402e-01 
3.035000000000e+01 7.815031815402e-01 
3.035000000000e+01 7.815031815402e-01 
3.037500000000e+01 7.705528376764e-01 
3.037500000000e+01 7.705528376764e-01 
3.037500000000e+01 7.705528376764e-01 
3.037500000000e+01 7.705528376764e-01 
3.037500000000e+01 7.705528376764e-01 
3.040000000000e+01 7.601615689674e-01 
3.040000000000e+01 7.601615689674e-01 
3.040000000000e+01 7.601615689674e-01 
3.040000000000e+01 7.601615689674e-01 
3.040000000000e+01 7.601615689674e-01 
3.042500000000e+01 7.502877306002e-01 
3.042500000000e+01 7.502877306002e-01 
3.042500000000e+01 7.502877306002e-01 
3.042500000000e+01 7.502877306002e-01 
3.042500000000e+01 7.502877306002e-01 
3.045000000000e+01 7.408930096824e-01 
3.045000000000e+01 7.408930096824e-01 
3.045000000000e+01 7.408930096824e-01 
3.045000000000e+01 7.408930096824e-01 
3.045000000000e+01 7.408930096824e-01 
3.047500000000e+01 7.319422999608e-01 
3.047500000000e+01 7.319422999608e-01 
3.047500000000e+01 7.319422999608e-01 
3.047500000000e+01 7.319422999608e-01 
3.047500000000e+01 7.319422999608e-01 
3.050000000000e+01 7.234035093991e-01 
3.050000000000e+01 7.234035093991e-01 
3.050000000000e+01 7.234035093991e-01 
3.050000000000e+01 7.234035093991e-01 
3.050000000000e+01 7.234035093991e-01 
3.052500000000e+01 7.152473371957e-01 
3.052500000000e+01 7.152473371957e-01 
3.052500000000e+01 7.152473371957e-01 
3.052500000000e+01 7.152473371957e-01 
3.052500000000e+01 7.152473371957e-01 
3.055000000000e+01 7.074470422112e-01 
3.055000000000e+01 7.074470422112e-01 
3.055000000000e+01 7.074470422112e-01 
3.055000000000e+01 7.074470422112e-01 
3.055000000000e+01 7.074470422112e-01 
3.057500000000e+01 6.999782156504e-01 
3.057500000000e+01 6.999782156504e-01 
3.057500000000e+01 6.999782156504e-01 
3.057500000000e+01 6.999782156504e-01 
3.057500000000e+01 6.999782156504e-01 
3.060000000000e+01 6.928185651596e-01 
3.060000000000e+01 6.928185651596e-01 
3.060000000000e+01 6.928185651596e-01 
3.060000000000e+01 6.928185651596e-01 
3.060000000000e+01 6.928185651596e-01 
3.062500000000e+01 6.859477139679e-01 
3.062500000000e+01 6.859477139679e-01 
3.062500000000e+01 6.859477139679e-01 
3.062500000000e+01 6.859477139679e-01 
3.062500000000e+01 6.859477139679e-01 
3.065000000000e+01 6.793470165436e-01 
3.065000000000e+01 6.793470165436e-01 
3.065000000000e+01 6.793470165436e-01 
3.065000000000e+01 6.793470165436e-01 
3.065000000000e+01 6.793470165436e-01 
3.067500000000e+01 6.729993909360e-01 
3.067500000000e+01 6.729993909360e-01 
3.067500000000e+01 6.729993909360e-01 
3.067500000000e+01 6.729993909360e-01 
3.067500000000e+01 6.729993909360e-01 
3.070000000000e+01 6.668891672206e-01 
3.070000000000e+01 6.668891672206e-01 
3.070000000000e+01 6.668891672206e-01 
3.070000000000e+01 6.668891672206e-01 
3.070000000000e+01 6.668891672206e-01 
3.072500000000e+01 6.610019510587e-01 
3.072500000000e+01 6.610019510587e-01 
3.072500000000e+01 6.610019510587e-01 
3.072500000000e+01 6.610019510587e-01 
3.072500000000e+01 6.610019510587e-01 
3.075000000000e+01 6.553245011865e-01 
3.075000000000e+01 6.553245011865e-01 
3.075000000000e+01 6.553245011865e-01 
3.075000000000e+01 6.553245011865e-01 
3.075000000000e+01 6.553245011865e-01 
3.077500000000e+01 6.498446195878e-01 
3.077500000000e+01 6.498446195878e-01 
3.077500000000e+01 6.498446195878e-01 
3.077500000000e+01 6.498446195878e-01 
3.077500000000e+01 6.498446195878e-01 
3.080000000000e+01 6.445510531188e-01 
3.080000000000e+01 6.445510531188e-01 
3.080000000000e+01 6.445510531188e-01 
3.080000000000e+01 6.445510531188e-01 
3.080000000000e+01 6.445510531188e-01 
3.082500000000e+01 6.394334054150e-01 
3.082500000000e+01 6.394334054150e-01 
3.082500000000e+01 6.394334054150e-01 
3.082500000000e+01 6.394334054150e-01 
3.082500000000e+01 6.394334054150e-01 
3.085000000000e+01 6.344820579917e-01 
3.085000000000e+01 6.344820579917e-01 
3.085000000000e+01 6.344820579917e-01 
3.085000000000e+01 6.344820579917e-01 
3.085000000000e+01 6.344820579917e-01 
3.087500000000e+01 6.296880995462e-01 
3.087500000000e+01 6.296880995462e-01 
3.087500000000e+01 6.296880995462e-01 
3.087500000000e+01 6.296880995462e-01 
3.087500000000e+01 6.296880995462e-01 
3.090000000000e+01 6.250432625624e-01 
3.090000000000e+01 6.250432625624e-01 
3.090000000000e+01 6.250432625624e-01 
3.090000000000e+01 6.250432625624e-01 
3.090000000000e+01 6.250432625624e-01 
3.092500000000e+01 6.205398664126e-01 
3.092500000000e+01 6.205398664126e-01 
3.092500000000e+01 6.205398664126e-01 
3.092500000000e+01 6.205398664126e-01 
3.092500000000e+01 6.205398664126e-01 
3.095000000000e+01 6.161707662369e-01 
3.095000000000e+01 6.161707662369e-01 
3.095000000000e+01 6.161707662369e-01 
3.095000000000e+01 6.161707662369e-01 
3.095000000000e+01 6.161707662369e-01 
3.097500000000e+01 6.119293069613e-01 
3.097500000000e+01 6.119293069613e-01 
3.097500000000e+01 6.119293069613e-01 
3.097500000000e+01 6.119293069613e-01 
3.097500000000e+01 6.119293069613e-01 
3.100000000000e+01 6.078092818871e-01 
3.100000000000e+01 6.078092818871e-01 
3.100000000000e+01 6.078092818871e-01 
3.100000000000e+01 6.078092818871e-01 
3.100000000000e+01 6.078092818871e-01 
3.102500000000e+01 6.038048953494e-01 
3.102500000000e+01 6.038048953494e-01 
3.102500000000e+01 6.038048953494e-01 
3.102500000000e+01 6.038048953494e-01 
3.102500000000e+01 6.038048953494e-01 
3.105000000000e+01 5.999107290013e-01 
3.105000000000e+01 5.999107290013e-01 
3.105000000000e+01 5.999107290013e-01 
3.105000000000e+01 5.999107290013e-01 
3.105000000000e+01 5.999107290013e-01 
3.107500000000e+01 5.961217113309e-01 
3.107500000000e+01 5.961217113309e-01 
3.107500000000e+01 5.961217113309e-01 
3.107500000000e+01 5.961217113309e-01 
3.107500000000e+01 5.961217113309e-01 
3.110000000000e+01 5.924330900627e-01 
3.110000000000e+01 5.924330900627e-01 
3.110000000000e+01 5.924330900627e-01 
3.110000000000e+01 5.924330900627e-01 
3.110000000000e+01 5.924330900627e-01 
3.112500000000e+01 5.888404071392e-01 
3.112500000000e+01 5.888404071392e-01 
3.112500000000e+01 5.888404071392e-01 
3.112500000000e+01 5.888404071392e-01 
3.112500000000e+01 5.888404071392e-01 
3.115000000000e+01 5.853394760078e-01 
3.115000000000e+01 5.853394760078e-01 
3.115000000000e+01 5.853394760078e-01 
3.115000000000e+01 5.853394760078e-01 
3.115000000000e+01 5.853394760078e-01 
3.117500000000e+01 5.819263609758e-01 
3.117500000000e+01 5.819263609758e-01 
3.117500000000e+01 5.819263609758e-01 
3.117500000000e+01 5.819263609758e-01 
3.117500000000e+01 5.819263609758e-01 
3.120000000000e+01 5.785973584173e-01 
3.120000000000e+01 5.785973584173e-01 
3.120000000000e+01 5.785973584173e-01 
3.120000000000e+01 5.785973584173e-01 
3.120000000000e+01 5.785973584173e-01 
3.122500000000e+01 5.753489796460e-01 
3.122500000000e+01 5.753489796460e-01 
3.122500000000e+01 5.753489796460e-01 
3.122500000000e+01 5.753489796460e-01 
3.122500000000e+01 5.753489796460e-01 
3.125000000000e+01 5.721779352840e-01 
3.125000000000e+01 5.721779352840e-01 
3.125000000000e+01 5.721779352840e-01 
3.125000000000e+01 5.721779352840e-01 
3.125000000000e+01 5.721779352840e-01 
3.127500000000e+01 5.690811209785e-01 
3.127500000000e+01 5.690811209785e-01 
3.127500000000e+01 5.690811209785e-01 
3.127500000000e+01 5.690811209785e-01 
3.127500000000e+01 5.690811209785e-01 
3.130000000000e+01 5.660556043336e-01 
3.130000000000e+01 5.660556043336e-01 
3.130000000000e+01 5.660556043336e-01 
3.130000000000e+01 5.660556043336e-01 
3.130000000000e+01 5.660556043336e-01 
3.132500000000e+01 5.630986129391e-01 
3.132500000000e+01 5.630986129391e-01 
3.132500000000e+01 5.630986129391e-01 
3.132500000000e+01 5.630986129391e-01 
3.132500000000e+01 5.630986129391e-01 
3.135000000000e+01 5.602075233904e-01 
3.135000000000e+01 5.602075233904e-01 
3.135000000000e+01 5.602075233904e-01 
3.135000000000e+01 5.602075233904e-01 
3.135000000000e+01 5.602075233904e-01 
3.137500000000e+01 5.573798512060e-01 
3.137500000000e+01 5.573798512060e-01 
3.137500000000e+01 5.573798512060e-01 
3.137500000000e+01 5.573798512060e-01 
3.137500000000e+01 5.573798512060e-01 
3.140000000000e+01 5.546132415581e-01 
3.140000000000e+01 5.546132415581e-01 
3.140000000000e+01 5.546132415581e-01 
3.140000000000e+01 5.546132415581e-01 
3.140000000000e+01 5.546132415581e-01 
3.142500000000e+01 5.519054607414e-01 
3.142500000000e+01 5.519054607414e-01 
3.142500000000e+01 5.519054607414e-01 
3.142500000000e+01 5.519054607414e-01 
3.142500000000e+01 5.519054607414e-01 
3.145000000000e+01 5.492543883110e-01 
3.145000000000e+01 5.492543883110e-01 
3.145000000000e+01 5.492543883110e-01 
3.145000000000e+01 5.492543883110e-01 
3.145000000000e+01 5.492543883110e-01 
3.147500000000e+01 5.466580098318e-01 
3.147500000000e+01 5.466580098318e-01 
3.147500000000e+01 5.466580098318e-01 
3.147500000000e+01 5.466580098318e-01 
3.147500000000e+01 5.466580098318e-01 
3.150000000000e+01 5.441144101810e-01 
3.150000000000e+01 5.441144101810e-01 
3.150000000000e+01 5.441144101810e-01 
3.150000000000e+01 5.441144101810e-01 
3.150000000000e+01 5.441144101810e-01 
3.152500000000e+01 5.416217673588e-01 
3.152500000000e+01 5.416217673588e-01 
3.152500000000e+01 5.416217673588e-01 
3.152500000000e+01 5.416217673588e-01 
3.152500000000e+01 5.416217673588e-01 
3.155000000000e+01 5.391783467591e-01 
3.155000000000e+01 5.391783467591e-01 
3.155000000000e+01 5.391783467591e-01 
3.155000000000e+01 5.391783467591e-01 
3.155000000000e+01 5.391783467591e-01 
3.157500000000e+01 5.367824958643e-01 
3.157500000000e+01 5.367824958643e-01 
3.157500000000e+01 5.367824958643e-01 
3.157500000000e+01 5.367824958643e-01 
3.157500000000e+01 5.367824958643e-01 
3.160000000000e+01 5.344326393247e-01 
3.160000000000e+01 5.344326393247e-01 
3.160000000000e+01 5.344326393247e-01 
3.160000000000e+01 5.344326393247e-01 
3.160000000000e+01 5.344326393247e-01 
3.162500000000e+01 5.321272743928e-01 
3.162500000000e+01 5.321272743928e-01 
3.162500000000e+01 5.321272743928e-01 
3.162500000000e+01 5.321272743928e-01 
3.162500000000e+01 5.321272743928e-01 
3.165000000000e+01 5.298649666811e-01 
3.165000000000e+01 5.298649666811e-01 
3.165000000000e+01 5.298649666811e-01 
3.165000000000e+01 5.298649666811e-01 
3.165000000000e+01 5.298649666811e-01 
3.167500000000e+01 5.276443462180e-01 
3.167500000000e+01 5.276443462180e-01 
3.167500000000e+01 5.276443462180e-01 
3.167500000000e+01 5.276443462180e-01 
3.167500000000e+01 5.276443462180e-01 
3.170000000000e+01 5.254641037767e-01 
3.170000000000e+01 5.254641037767e-01 
3.170000000000e+01 5.254641037767e-01 
3.170000000000e+01 5.254641037767e-01 
3.170000000000e+01 5.254641037767e-01 
3.172500000000e+01 5.233229874560e-01 
3.172500000000e+01 5.233229874560e-01 
3.172500000000e+01 5.233229874560e-01 
3.172500000000e+01 5.233229874560e-01 
3.172500000000e+01 5.233229874560e-01 
3.175000000000e+01 5.212197994921e-01 
3.175000000000e+01 5.212197994921e-01 
3.175000000000e+01 5.212197994921e-01 
3.175000000000e+01 5.212197994921e-01 
3.175000000000e+01 5.212197994921e-01 
3.177500000000e+01 5.191533932842e-01 
3.177500000000e+01 5.191533932842e-01 
3.177500000000e+01 5.191533932842e-01 
3.177500000000e+01 5.191533932842e-01 
3.177500000000e+01 5.191533932842e-01 
3.180000000000e+01 5.171226706164e-01 
3.180000000000e+01 5.171226706164e-01 
3.180000000000e+01 5.171226706164e-01 
3.180000000000e+01 5.171226706164e-01 
3.180000000000e+01 5.171226706164e-01 
3.182500000000e+01 5.151265790614e-01 
3.182500000000e+01 5.151265790614e-01 
3.182500000000e+01 5.151265790614e-01 
3.182500000000e+01 5.151265790614e-01 
3.182500000000e+01 5.151265790614e-01 
3.185000000000e+01 5.131641095520e-01 
3.185000000000e+01 5.131641095520e-01 
3.185000000000e+01 5.131641095520e-01 
3.185000000000e+01 5.131641095520e-01 
3.185000000000e+01 5.131641095520e-01 
3.187500000000e+01 5.112342941078e-01 
3.187500000000e+01 5.112342941078e-01 
3.187500000000e+01 5.112342941078e-01 
3.187500000000e+01 5.112342941078e-01 
3.187500000000e+01 5.112342941078e-01 
3.190000000000e+01 5.093362037054e-01 
3.190000000000e+01 5.093362037054e-01 
3.190000000000e+01 5.093362037054e-01 
3.190000000000e+01 5.093362037054e-01 
3.190000000000e+01 5.093362037054e-01 
3.192500000000e+01 5.074689462822e-01 
3.192500000000e+01 5.074689462822e-01 
3.192500000000e+01 5.074689462822e-01 
3.192500000000e+01 5.074689462822e-01 
3.192500000000e+01 5.074689462822e-01 
3.195000000000e+01 5.056316648631e-01 
3.195000000000e+01 5.056316648631e-01 
3.195000000000e+01 5.056316648631e-01 
3.195000000000e+01 5.056316648631e-01 
3.195000000000e+01 5.056316648631e-01 
3.197500000000e+01 5.038235358020e-01 
3.197500000000e+01 5.038235358020e-01 
3.197500000000e+01 5.038235358020e-01 
3.197500000000e+01 5.038235358020e-01 
3.197500000000e+01 5.038235358020e-01 
3.200000000000e+01 5.001848712159e-01 
3.200000000000e+01 5.001993579636e-01 
3.200000000000e+01 5.002065896157e-01 
3.200000000000e+01 5.001921184883e-01 
3.200000000000e+01 5.002138134187e-01 
3.363273630522e+01 4.223577203349e-01 
3.363673692432e+01 4.222209365455e-01 
3.364073754343e+01 4.220843438076e-01 
3.364473816254e+01 4.219479416653e-01 
3.364873878164e+01 4.218117296639e-01 
3.526547261043e+01 3.813031148131e-01 
3.527347384865e+01 3.811393965735e-01 
3.528147508686e+01 3.809760045155e-01 
3.528947632508e+01 3.808129375116e-01 
3.529747756329e+01 3.806501944396e-01 
3.689820891565e+01 3.538934747793e-01 
3.691021077297e+01 3.537220593570e-01 
3.692221263029e+01 3.535510363472e-01 
3.693421448761e+01 3.533804041850e-01 
3.694621634493e+01 3.532101613146e-01 
3.853094522087e+01 3.338214650426e-01 
3.854694769730e+01 3.336489959507e-01 
3.856295017372e+01 3.334769533518e-01 
3.857895265015e+01 3.333053354069e-01 
3.859495512658e+01 3.331341402883e-01 
4.016368152609e+01 3.182162003131e-01 
4.018368462162e+01 3.180452464484e-01 
4.020368771715e+01 3.178747367616e-01 
4.022369081269e+01 3.177046692396e-01 
4.024369390822e+01 3.175350418823e-01 
 TITLE = "Profiles along polylines"
 VARIABLES = "DIST" "SATURATION1" 
 ZONE T="TIME=1.797693134862e+308"
5.163681526086e+00 1.000000000000e+00 
5.183684621620e+00 1.000000000000e+00 
5.203687717155e+00 1.000000000000e+00 
5.223690812689e+00 1.000000000000e+00 
5.243693908223e+00 1.000000000000e+00 
5.991558808550e+00 1.000000000000e+00 
6.010895134233e+00 1.000000000000e+00 
6.030231459916e+00 1.000000000000e+00 
6.049567785599e+00 1.000000000000e+00 
6.068904111282e+00 1.000000000000e+00 
6.819436091013e+00 1.000000000000e+00 
6.838105646845e+00 1.000000000000e+00 
6.856775202677e+00 1.000000000000e+00 
6.875444758509e+00 1.000000000000e+00 
6.894114314341e+00 1.000000000000e+00 
7.647313373477e+00 1.000000000000e+00 
7.665316159458e+00 1.000000000000e+00 
7.683318945439e+00 1.000000000000e+00 
7.701321731420e+00 1.000000000000e+00 
7.719324517401e+00 1.000000000000e+00 
8.475190655941e+00 1.000000000000e+00 
8.492526672071e+00 1.000000000000e+00 
8.509862688201e+00 1.000000000000e+00 
8.527198704330e+00 1.000000000000e+00 
8.544534720460e+00 1.000000000000e+00 
9.303067938404e+00 1.000000000000e+00 
9.319737184683e+00 1.000000000000e+00 
9.336406430961e+00 1.000000000000e+00 
9.353075677240e+00 1.000000000000e+00 
9.369744923519e+00 1.000000000000e+00 
1.013094522087e+01 1.000000000000e+00 
1.014694769729e+01 1.000000000000e+00 
1.016295017372e+01 1.000000000000e+00 
1.017895265015e+01 1.000000000000e+00 
1.019495512658e+01 1.000000000000e+00 
1.095882250333e+01 1.000000000000e+00 
1.097415820991e+01 1.000000000000e+00 
1.098949391648e+01 1.000000000000e+00 
1.100482962306e+01 1.000000000000e+00 
1.102016532964e+01 1.000000000000e+00 
1.178669978579e+01 1.000000000000e+00 
1.180136872252e+01 1.000000000000e+00 
1.181603765924e+01 1.000000000000e+00 
1.183070659597e+01 1.000000000000e+00 
1.184537553269e+01 1.000000000000e+00 
1.261457706826e+01 1.000000000000e+00 
1.262857923513e+01 1.000000000000e+00 
1.264258140200e+01 1.000000000000e+00 
1.265658356888e+01 1.000000000000e+00 
1.267058573575e+01 1.000000000000e+00 
1.344245435072e+01 1.000000000000e+00 
1.345578974774e+01 1.000000000000e+00 
1.346912514476e+01 1.000000000000e+00 
1.348246054179e+01 1.000000000000e+00 
1.349579593881e+01 1.000000000000e+00 
1.427033163318e+01 1.000000000000e+00 
1.428300026035e+01 1.000000000000e+00 
1.429566888752e+01 1.000000000000e+00 
1.430833751469e+01 1.000000000000e+00 
1.432100614187e+01 1.000000000000e+00 
1.509820891564e+01 1.000000000000e+00 
1.511021077296e+01 1.000000000000e+00 
1.512221263028e+01 1.000000000000e+00 
1.513421448760e+01 1.000000000000e+00 
1.514621634492e+01 1.000000000000e+00 
1.592608619810e+01 1.000000000000e+00 
1.593742128557e+01 1.000000000000e+00 
1.594875637304e+01 1.000000000000e+00 
1.596009146051e+01 1.000000000000e+00 
1.597142654798e+01 1.000000000000e+00 
1.675396348056e+01 1.000000000000e+00 
1.676463179818e+01 1.000000000000e+00 
1.677530011580e+01 1.000000000000e+00 
1.678596843342e+01 1.000000000000e+00 
1.679663675104e+01 1.000000000000e+00 
1.758184076302e+01 1.000000000000e+00 
1.759184231079e+01 1.000000000000e+00 
1.760184385856e+01 1.000000000000e+00 
1.761184540633e+01 1.000000000000e+00 
1.762184695409e+01 1.000000000000e+00 
1.840971804549e+01 1.000000000000e+00 
1.841905282340e+01 1.000000000000e+00 
1.842838760132e+01 1.000000000000e+00 
1.843772237924e+01 1.000000000000e+00 
1.844705715715e+01 1.000000000000e+00 
1.923759532795e+01 1.000000000000e+00 
1.924626333602e+01 1.000000000000e+00 
1.925493134408e+01 1.000000000000e+00 
1.926359935215e+01 1.000000000000e+00 
1.927226736021e+01 1.000000000000e+00 
2.006547261042e+01 1.000000000000e+00 
2.007347384863e+01 1.000000000000e+00 
2.008147508685e+01 1.000000000000e+00 
2.008947632506e+01 1.000000000000e+00 
2.009747756327e+01 1.000000000000e+00 
2.089334989288e+01 1.000000000000e+00 
2.090068436125e+01 1.000000000000e+00 
2.090801882961e+01 1.000000000000e+00 
2.091535329797e+01 1.000000000000e+00 
2.092268776633e+01 1.000000000000e+00 
2.172122717535e+01 1.000000000000e+00 
2.172789487386e+01 1.000000000000e+00 
2.173456257237e+01 1.000000000000e+00 
2.174123027088e+01 1.000000000000e+00 
2.174789796940e+01 1.000000000000e+00 
2.254910445781e+01 1.000000000000e+00 
2.255510538647e+01 1.000000000000e+00 
2.256110631513e+01 1.000000000000e+00 
2.256710724380e+01 1.000000000000e+00 
2.257310817246e+01 1.000000000000e+00 
2.337698174028e+01 1.000000000000e+00 
2.338231589909e+01 1.000000000000e+00 
2.338765005790e+01 1.000000000000e+00 
2.339298421671e+01 1.000000000000e+00 
2.339831837552e+01 1.000000000000e+00 
2.420485902274e+01 1.000000000000e+00 
2.420952641170e+01 1.000000000000e+00 
2.421419380066e+01 1.000000000000e+00 
2.421886118962e+01 1.000000000000e+00 
2.422352857858e+01 1.000000000000e+00 
2.503273630521e+01 1.000000000000e+00 
2.503673692432e+01 1.000000000000e+00 
2.504073754342e+01 1.000000000000e+00 
2.504473816253e+01 1.000000000000e+00 
2.504873878164e+01 1.000000000000e+00 
2.586061358767e+01 1.000000000000e+00 
2.586394743693e+01 1.000000000000e+00 
2.586728128619e+01 1.000000000000e+00 
2.587061513544e+01 1.000000000000e+00 
2.587394898470e+01 1.000000000000e+00 
2.668849087014e+01 1.000000000000e+00 
2.669115794954e+01 1.000000000000e+00 
2.669382502895e+01 1.000000000000e+00 
2.669649210835e+01 1.000000000000e+00 
2.669915918776e+01 1.000000000000e+00 
2.751636815260e+01 1.000000000000e+00 
2.751836846216e+01 1.000000000000e+00 
2.752036877171e+01 1.000000000000e+00 
2.752236908127e+01 1.000000000000e+00 
2.752436939082e+01 1.000000000000e+00 
2.834424543507e+01 1.000000000000e+00 
2.834557897477e+01 1.000000000000e+00 
2.834691251447e+01 1.000000000000e+00 
2.834824605418e+01 1.000000000000e+00 
2.834957959388e+01 1.000000000000e+00 
2.917212271753e+01 1.000000000000e+00 
2.917278948739e+01 1.000000000000e+00 
2.917345625724e+01 1.000000000000e+00 
2.917412302709e+01 1.000000000000e+00 
2.917478979694e+01 1.000000000000e+00 
3.000000000000e+01 1.000000000000e+00 
3.000000000000e+01 1.000000000000e+00 
3.000000000000e+01 1.000000000000e+00 
3.000000000000e+01 1.000000000000e+00 
3.000000000000e+01 1.000000000000e+00 
3.002500000000e+01 1.000000000000e+00 
3.002500000000e+01 1.000000000000e+00 
3.002500000000e+01 1.000000000000e+00 
3.002500000000e+01 1.000000000000e+00 
3.002500000000e+01 1.000000000000e+00 
3.005000000000e+01 1.000000000000e+00 
3.005000000000e+01 1.000000000000e+00 
3.005000000000e+01 1.000000000000e+00 
3.005000000000e+01 1.000000000000e+00 
3.005000000000e+01 1.000000000000e+00 
3.007500000000e+01 1.000000000000e+00 
3.007500000000e+01 1.000000000000e+00 
3.007500000000e+01 1.000000000000e+00 
3.007500000000e+01 1.000000000000e+00 
3.007500000000e+01 1.000000000000e+00 
3.010000000000e+01 1.000000000000e+00 
3.010000000000e+01 1.000000000000e+00 
3.010000000000e+01 1.000000000000e+00 
3.010000000000e+01 1.000000000000e+00 
3.010000000000e+01 1.000000000000e+00 
3.012500000000e+01 1.000000000000e+00 
3.012500000000e+01 1.000000000000e+00 
3.012500000000e+01 1.000000000000e+00 
3.012500000000e+01 1.000000000000e+00 
3.012500000000e+01 1.000000000000e+00 
3.015000000000e+01 1.000000000000e+00 
3.015000000000e+01 1.000000000000e+00 
3.015000000000e+01 1.000000000000e+00 