 TITLE = "Profiles along polylines"
 VARIABLES = "DIST" "SATURATION1" 
 ZONE T="TIME=0.000000000000e+00"
8.903046322915e-01 1.000000000000e+00 
8.953063437089e-01 1.000000000000e+00 
9.003080551263e-01 1.000000000000e+00 
9.053097665437e-01 1.000000000000e+00 
9.103114779611e-01 1.000000000000e+00 
1.860627811215e+00 1.000000000000e+00 
1.865462798918e+00 1.000000000000e+00 
1.870297786622e+00 1.000000000000e+00 
1.875132774325e+00 1.000000000000e+00 
1.879967762029e+00 1.000000000000e+00 
2.830950990138e+00 1.000000000000e+00 
2.835619254127e+00 1.000000000000e+00 
2.840287518117e+00 1.000000000000e+00 
2.844955782107e+00 1.000000000000e+00 
2.849624046096e+00 1.000000000000e+00 
3.801274169062e+00 1.000000000000e+00 
3.805775709338e+00 1.000000000000e+00 
3.810277249613e+00 1.000000000000e+00 
3.814778789889e+00 1.000000000000e+00 
3.819280330165e+00 1.000000000000e+00 
4.771597347986e+00 1.000000000000e+00 
4.775932164547e+00 1.000000000000e+00 
4.780266981109e+00 1.000000000000e+00 
4.784601797671e+00 1.000000000000e+00 
4.788936614233e+00 1.000000000000e+00 
5.741920526909e+00 1.000000000000e+00 
5.746088619756e+00 1.000000000000e+00 
5.750256712604e+00 1.000000000000e+00 
5.754424805452e+00 1.000000000000e+00 
5.758592898300e+00 1.000000000000e+00 
6.712243705831e+00 1.000000000000e+00 
6.716245074965e+00 1.000000000000e+00 
6.720246444099e+00 1.000000000000e+00 
6.724247813233e+00 1.000000000000e+00 
6.728249182367e+00 1.000000000000e+00 
7.682566884754e+00 1.000000000000e+00 
7.686401530174e+00 1.000000000000e+00 
7.690236175594e+00 1.000000000000e+00 
7.694070821014e+00 1.000000000000e+00 
7.697905466434e+00 1.000000000000e+00 
8.652890063677e+00 1.000000000000e+00 
8.656557985383e+00 1.000000000000e+00 
8.660225907089e+00 1.000000000000e+00 
8.663893828795e+00 1.000000000000e+00 
8.667561750501e+00 1.000000000000e+00 
9.623213242597e+00 1.000000000000e+00 
9.626714440589e+00 1.000000000000e+00 
9.630215638582e+00 1.000000000000e+00 
9.633716836574e+00 1.000000000000e+00 
9.637218034566e+00 1.000000000000e+00 
1.059353642152e+01 1.000000000000e+00 
1.059687089580e+01 1.000000000000e+00 
1.060020537007e+01 1.000000000000e+00 
1.060353984435e+01 1.000000000000e+00 
1.060687431863e+01 1.000000000000e+00 
1.156385960044e+01 1.000000000000e+00 
1.156702735100e+01 1.000000000000e+00 
1.157019510157e+01 1.000000000000e+00 
1.157336285213e+01 1.000000000000e+00 
1.157653060269e+01 1.000000000000e+00 
1.253418277936e+01 1.000000000000e+00 
1.253718380621e+01 1.000000000000e+00 
1.254018483306e+01 1.000000000000e+00 
1.254318585991e+01 1.000000000000e+00 
1.254618688676e+01 1.000000000000e+00 
1.350450595828e+01 1.000000000000e+00 
1.350734026141e+01 1.000000000000e+00 
1.351017456455e+01 1.000000000000e+00 
1.351300886769e+01 1.000000000000e+00 
1.351584317082e+01 1.000000000000e+00 
1.447482913720e+01 1.000000000000e+00 
1.447749671662e+01 1.000000000000e+00 
1.448016429604e+01 1.000000000000e+00 
1.448283187547e+01 1.000000000000e+00 
1.448549945489e+01 1.000000000000e+00 
1.544515231612e+01 1.000000000000e+00 
1.544765317183e+01 1.000000000000e+00 
1.545015402754e+01 1.000000000000e+00 
1.545265488324e+01 1.000000000000e+00 
1.545515573895e+01 1.000000000000e+00 
1.641547549504e+01 1.000000000000e+00 
1.641780962704e+01 1.000000000000e+00 
1.642014375903e+01 1.000000000000e+00 
1.642247789103e+01 1.000000000000e+00 
1.642481202302e+01 1.000000000000e+00 
1.738579867397e+01 1.000000000000e+00 
1.738796608225e+01 1.000000000000e+00 
1.739013349053e+01 1.000000000000e+00 
1.739230089881e+01 1.000000000000e+00 
1.739446830709e+01 1.000000000000e+00 
1.835612185289e+01 1.000000000000e+00 
1.835812253746e+01 1.000000000000e+00 
1.836012322203e+01 1.000000000000e+00 
1.836212390660e+01 1.000000000000e+00 
1.836412459116e+01 1.000000000000e+00 
1.932644503182e+01 1.000000000000e+00 
1.932827899267e+01 1.000000000000e+00 
1.933011295353e+01 1.000000000000e+00 
1.933194691438e+01 1.000000000000e+00 
1.933378087523e+01 1.000000000000e+00 
2.029676821075e+01 1.000000000000e+00 
2.029843544788e+01 1.000000000000e+00 
2.030010268502e+01 1.000000000000e+00 
2.030176992216e+01 1.000000000000e+00 
2.030343715930e+01 1.000000000000e+00 
2.126709138967e+01 1.000000000000e+00 
2.126859190310e+01 1.000000000000e+00 
2.127009241652e+01 1.000000000000e+00 
2.127159292995e+01 1.000000000000e+00 
2.127309344337e+01 1.000000000000e+00 
2.223741456860e+01 1.000000000000e+00 
2.223874835831e+01 1.000000000000e+00 
2.224008214802e+01 1.000000000000e+00 
2.224141593773e+01 1.000000000000e+00 
2.224274972744e+01 1.000000000000e+00 
2.320773774752e+01 1.000000000000e+00 
2.320890481352e+01 1.000000000000e+00 
2.321007187952e+01 1.000000000000e+00 
2.321123894551e+01 1.000000000000e+00 
2.321240601151e+01 1.000000000000e+00 
2.417806092645e+01 1.000000000000e+00 
2.417906126873e+01 1.000000000000e+00 
2.418006161101e+01 1.000000000000e+00 
2.418106195330e+01 1.000000000000e+00 
2.418206229558e+01 1.000000000000e+00 
2.514838410537e+01 1.000000000000e+00 
2.514921772394e+01 1.000000000000e+00 
2.515005134251e+01 1.000000000000e+00 
2.515088496108e+01 1.000000000000e+00 
2.515171857965e+01 1.000000000000e+00 
2.611870728430e+01 1.000000000000e+00 
2.611937417915e+01 1.000000000000e+00 
2.612004107401e+01 1.000000000000e+00 
2.612070796886e+01 1.000000000000e+00 
2.612137486372e+01 1.000000000000e+00 
2.708903046322e+01 1.000000000000e+00 
2.708953063437e+01 1.000000000000e+00 
2.709003080551e+01 1.000000000000e+00 
2.709053097665e+01 1.000000000000e+00 
2.709103114779e+01 1.000000000000e+00 
2.805935364215e+01 1.000000000000e+00 
2.805968708958e+01 1.000000000000e+00 
2.806002053700e+01 1.000000000000e+00 
2.806035398443e+01 1.000000000000e+00 
2.806068743186e+01 1.000000000000e+00 
2.902967682107e+01 1.000000000000e+00 
2.902984354479e+01 1.000000000000e+00 
2.903001026850e+01 1.000000000000e+00 
2.903017699222e+01 1.000000000000e+00 
2.903034371593e+01 1.000000000000e+00 
3.000000000000e+01 1.000000000000e+00 
3.000000000000e+01 1.000000000000e+00 
3.000000000000e+01 1.000000000000e+00 
3.000000000000e+01 1.000000000000e+00 
3.000000000000e+01 1.000000000000e+00 
3.002500000000e+01 9.876207709446e-01 
3.002500000000e+01 9.876207709446e-01 
3.002500000000e+01 9.876207709446e-01 
3.002500000000e+01 9.876207709446e-01 
3.002500000000e+01 9.876207709446e-01 
3.005000000000e+01 9.697756439369e-01 
3.005000000000e+01 9.697756439369e-01 
3.005000000000e+01 9.697756439369e-01 
3.005000000000e+01 9.697756439369e-01 
3.005000000000e+01 9.697756439369e-01 
3.007500000000e+01 9.507134089444e-01 
3.007500000000e+01 9.507134089444e-01 
3.007500000000e+01 9.507134089444e-01 
3.007500000000e+01 9.507134089444e-01 
3.007500000000e+01 9.507134089444e-01 
3.010000000000e+01 9.315621650298e-01 
3.010000000000e+01 9.315621650298e-01 
3.010000000000e+01 9.315621650298e-01 
3.010000000000e+01 9.315621650298e-01 
3.010000000000e+01 9.315621650298e-01 
3.012500000000e+01 9.128758324042e-01 
3.012500000000e+01 9.128758324042e-01 
3.012500000000e+01 9.128758324042e-01 
3.012500000000e+01 9.128758324042e-01 
3.012500000000e+01 9.128758324042e-01 
3.015000000000e+01 8.949248043380e-01 
3.015000000000e+01 8.949248043380e-01 
3.015000000000e+01 8.949248043380e-01 
3.015000000000e+01 8.949248043380e-01 
3.015000000000e+01 8.949248043380e-01 
3.017500000000e+01 8.778290027968e-01 
3.017500000000e+01 8.778290027968e-01 
3.017500000000e+01 8.778290027968e-01 
3.017500000000e+01 8.778290027968e-01 
3.017500000000e+01 8.778290027968e-01 
3.020000000000e+01 8.616255702900e-01 
3.020000000000e+01 8.616255702900e-01 
3.020000000000e+01 8.616255702900e-01 
3.020000000000e+01 8.616255702900e-01 
3.020000000000e+01 8.616255702900e-01 
3.022500000000e+01 8.463059583920e-01 
3.022500000000e+01 8.463059583920e-01 
3.022500000000e+01 8.463059583920e-01 
3.022500000000e+01 8.463059583920e-01 
3.022500000000e+01 8.463059583920e-01 
3.025000000000e+01 8.318370344398e-01 
3.025000000000e+01 8.318370344398e-01 
3.025000000000e+01 8.318370344398e-01 
3.025000000000e+01 8.318370344398e-01 
3.025000000000e+01 8.318370344398e-01 
3.027500000000e+01 8.181733156316e-01 
3.027500000000e+01 8.181733156316e-01 
3.027500000000e+01 8.181733156316e-01 
3.027500000000e+01 8.181733156316e-01 
3.027500000000e+01 8.181733156316e-01 
3.030000000000e+01 8.052640970350e-01 
3.030000000000e+01 8.052640970350e-01 
3.030000000000e+01 8.052640970350e-01 
3.030000000000e+01 8.052640970350e-01 
3.030000000000e+01 8.052640970350e-01 
3.032500000000e+01 7.930575753856e-01 
3.032500000000e+01 7.930575753856e-01 
3.032500000000e+01 7.930575753856e-01 
3.032500000000e+01 7.930575753856e-01 
3.032500000000e+01 7.930575753856e-01 
3.035000000000e+01 7.815031815402e-01 
3.035000000000e+01 7.815031815402e-01 
3.035000000000e+01 7.815031815402e-01 
3.035000000000e+01 7.815031815402e-01 
3.035000000000e+01 7.815031815402e-01 
3.037500000000e+01 7.705528376764e-01 
3.037500000000e+01 7.705528376764e-01 
3.037500000000e+01 7.705528376764e-01 
3.037500000000e+01 7.705528376764e-01 
3.037500000000e+01 7.705528376764e-01 
3.040000000000e+01 7.601615689674e-01 
3.040000000000e+01 7.601615689674e-01 
3.040000000000e+01 7.601615689674e-01 
3.040000000000e+01 7.601615689674e-01 
3.040000000000e+01 7.601615689674e-01 
3.042500000000e+01 7.502877306002e-01 
3.042500000000e+01 7.502877306002e-01 
3.042500000000e+01 7.502877306002e-01 
3.042500000000e+01 7.502877306002e-01 
3.042500000000e+01 7.502877306002e-01 
3.045000000000e+01 7.408930096824e-01 
3.045000000000e+01 7.408930096824e-01 
3.045000000000e+01 7.408930096824e-01 
3.045000000000e+01 7.408930096824e-01 
3.045000000000e+01 7.408930096824e-01 
3.047500000000e+01 7.319422999608e-01 
3.047500000000e+01 7.319422999608e-01 
3.047500000000e+01 7.319422999608e-01 
3.047500000000e+01 7.319422999608e-01 
3.047500000000e+01 7.319422999608e-01 
3.050000000000e+01 7.234035093991e-01 
3.050000000000e+01 7.234035093991e-01 
3.050000000000e+01 7.234035093991e-01 
3.050000000000e+01 7.234035093991e-01 
3.050000000000e+01 7.234035093991e-01 
3.052500000000e+01 7.152473371957e-01 
3.052500000000e+01 7.152473371957e-01 
3.052500000000e+01 7.152473371957e-01 
3.052500000000e+01 7.152473371957e-01 
3.052500000000e+01 7.152473371957e-01 
3.055000000000e+01 7.074470422112e-01 
3.055000000000e+01 7.074470422112e-01 
3.055000000000e+01 7.074470422112e-01 
3.055000000000e+01 7.074470422112e-01 
3.055000000000e+01 7.074470422112e-01 
3.057500000000e+01 6.999782156504e-01 
3.057500000000e+01 6.999782156504e-01 
3.057500000000e+01 6.999782156504e-01 
3.057500000000e+01 6.999782156504e-01 
3.057500000000e+01 6.999782156504e-01 
3.060000000000e+01 6.928185651596e-01 
3.060000000000e+01 6.928185651596e-01 
3.060000000000e+01 6.928185651596e-01 
3.060000000000e+01 6.928185651596e-01 
3.060000000000e+01 6.928185651596e-01 
3.062500000000e+01 6.859477139679e-01 
3.062500000000e+01 6.859477139679e-01 
3.062500000000e+01 6.859477139679e-01 
3.062500000000e+01 6.859477139679e-01 
3.062500000000e+01 6.859477139679e-01 
3.065000000000e+01 6.793470165436e-01 
3.065000000000e+01 6.793470165436e-01 
3.065000000000e+01 6.793470165436e-01 
3.065000000000e+01 6.793470165436e-01 
3.065000000000e+01 6.793470165436e-01 
3.067500000000e+01 6.729993909360e-01 
3.067500000000e+01 6.729993909360e-01 
3.067500000000e+01 6.729993909360e-01 
3.067500000000e+01 6.729993909360e-01 
3.067500000000e+01 6.729993909360e-01 
3.070000000000e+01 6.668891672206e-01 
3.070000000000e+01 6.668891672206e-01 
3.070000000000e+01 6.668891672206e-01 
3.070000000000e+01 6.668891672206e-01 
3.070000000000e+01 6.668891672206e-01 
3.072500000000e+01 6.610019510587e-01 
3.072500000000e+01 6.610019510587e-01 
3.072500000000e+01 6.610019510587e-01 
3.072500000000e+01 6.610019510587e-01 
3.072500000000e+01 6.610019510587e-01 
3.075000000000e+01 6.553245011865e-01 
3.075000000000e+01 6.553245011865e-01 
3.075000000000e+01 6.553245011865e-01 
3.075000000000e+01 6.553245011865e-01 
3.075000000000e+01 6.553245011865e-01 
3.077500000000e+01 6.498446195878e-01 
3.077500000000e+01 6.498446195878e-01 
3.077500000000e+01 6.498446195878e-01 
3.077500000000e+01 6.498446195878e-01 
3.077500000000e+01 6.498446195878e-01 
3.080000000000e+01 6.445510531188e-01 
3.080000000000e+01 6.445510531188e-01 
3.080000000000e+01 6.445510531188e-01 
3.080000000000e+01 6.445510531188e-01 
3.080000000000e+01 6.445510531188e-01 
3.082500000000e+01 6.394334054150e-01 
3.082500000000e+01 6.394334054150e-01 
3.082500000000e+01 6.394334054150e-01 
3.082500000000e+01 6.394334054150e-01 
3.082500000000e+01 6.394334054150e-01 
3.085000000000e+01 6.344820579917e-01 
3.085000000000e+01 6.344820579917e-01 
3.085000000000e+01 6.344820579917e-01 
3.085000000000e+01 6.344820579917e-01 
3.085000000000e+01 6.344820579917e-01 
3.087500000000e+01 6.296880995462e-01 
3.087500000000e+01 6.296880995462e-01 
3.087500000000e+01 6.296880995462e-01 
3.087500000000e+01 6.296880995462e-01 
3.087500000000e+01 6.296880995462e-01 
3.090000000000e+01 6.250432625624e-01 
3.090000000000e+01 6.250432625624e-01 
3.090000000000e+01 6.250432625624e-01 
3.090000000000e+01 6.250432625624e-01 
3.090000000000e+01 6.250432625624e-01 
3.092500000000e+01 6.205398664126e-01 
3.092500000000e+01 6.205398664126e-01 
3.092500000000e+01 6.205398664126e-01 
3.092500000000e+01 6.205398664126e-01 
3.092500000000e+01 6.205398664126e-01 
3.095000000000e+01 6.161707662369e-01 
3.095000000000e+01 6.161707662369e-01 
3.095000000000e+01 6.161707662369e-01 
3.095000000000e+01 6.161707662369e-01 
3.095000000000e+01 6.161707662369e-01 
3.097500000000e+01 6.119293069613e-01 
3.097500000000e+01 6.119293069613e-01 
3.097500000000e+01 6.119293069613e-01 
3.097500000000e+01 6.119293069613e-01 
3.097500000000e+01 6.119293069613e-01 
3.100000000000e+01 6.078092818871e-01 
3.100000000000e+01 6.078092818871e-01 
3.100000000000e+01 6.078092818871e-01 
3.100000000000e+01 6.078092818871e-01 
3.100000000000e+01 6.078092818871e-01 
3.102500000000e+01 6.038048953494e-01 
3.102500000000e+01 6.038048953494e-01 
3.102500000000e+01 6.038048953494e-01 
3.102500000000e+01 6.038048953494e-01 
3.102500000000e+01 6.038048953494e-01 
3.105000000000e+01 5.999107290013e-01 
3.105000000000e+01 5.999107290013e-01 
3.105000000000e+01 5.999107290013e-01 
3.105000000000e+01 5.999107290013e-01 
3.105000000000e+01 5.999107290013e-01 
3.107500000000e+01 5.961217113309e-01 
3.107500000000e+01 5.961217113309e-01 
3.107500000000e+01 5.961217113309e-01 
3.107500000000e+01 5.961217113309e-01 
3.107500000000e+01 5.961217113309e-01 
3.110000000000e+01 5.924330900627e-01 
3.110000000000e+01 5.924330900627e-01 
3.110000000000e+01 5.924330900627e-01 
3.110000000000e+01 5.924330900627e-01 
3.110000000000e+01 5.924330900627e-01 
3.112500000000e+01 5.888404071392e-01 
3.112500000000e+01 5.888404071392e-01 
3.112500000000e+01 5.888404071392e-01 
3.112500000000e+01 5.888404071392e-01 
3.112500000000e+01 5.888404071392e-01 
3.115000000000e+01 5.853394760078e-01 
3.115000000000e+01 5.853394760078e-01 
3.115000000000e+01 5.853394760078e-01 
3.115000000000e+01 5.853394760078e-01 
3.115000000000e+01 5.853394760078e-01 
3.117500000000e+01 5.819263609758e-01 
3.117500000000e+01 5.819263609758e-01 
3.117500000000e+01 5.819263609758e-01 
3.117500000000e+01 5.819263609758e-01 
3.117500000000e+01 5.819263609758e-01 
3.120000000000e+01 5.785973584173e-01 
3.120000000000e+01 5.785973584173e-01 
3.120000000000e+01 5.785973584173e-01 
3.120000000000e+01 5.785973584173e-01 
3.120000000000e+01 5.785973584173e-01 
3.122500000000e+01 5.753489796460e-01 
3.122500000000e+01 5.753489796460e-01 
3.122500000000e+01 5.753489796460e-01 
3.122500000000e+01 5.753489796460e-01 
3.122500000000e+01 5.753489796460e-01 
3.125000000000e+01 5.721779352840e-01 
3.125000000000e+01 5.721779352840e-01 
3.125000000000e+01 5.721779352840e-01 
3.125000000000e+01 5.721779352840e-01 
3.125000000000e+01 5.721779352840e-01 
3.127500000000e+01 5.690811209785e-01 
3.127500000000e+01 5.690811209785e-01 
3.127500000000e+01 5.690811209785e-01 
3.127500000000e+01 5.690811209785e-01 
3.127500000000e+01 5.690811209785e-01 
3.130000000000e+01 5.660556043336e-01 
3.130000000000e+01 5.660556043336e-01 
3.130000000000e+01 5.660556043336e-01 
3.130000000000e+01 5.660556043336e-01 
3.130000000000e+01 5.660556043336e-01 
3.132500000000e+01 5.630986129391e-01 
3.132500000000e+01 5.630986129391e-01 
3.132500000000e+01 5.630986129391e-01 
3.132500000000e+01 5.630986129391e-01 
3.132500000000e+01 5.630986129391e-01 
3.135000000000e+01 5.602075233904e-01 
3.135000000000e+01 5.602075233904e-01 
3.135000000000e+01 5.602075233904e-01 
3.135000000000e+01 5.602075233904e-01 
3.135000000000e+01 5.602075233904e-01 
3.137500000000e+01 5.573798512060e-01 
3.137500000000e+01 5.573798512060e-01 
3.137500000000e+01 5.573798512060e-01 
3.137500000000e+01 5.573798512060e-01 
3.137500000000e+01 5.573798512060e-01 
3.140000000000e+01 5.546132415581e-01 
3.140000000000e+01 5.546132415581e-01 
3.140000000000e+01 5.546132415581e-01 
3.140000000000e+01 5.546132415581e-01 
3.140000000000e+01 5.546132415581e-01 
3.142500000000e+01 5.519054607414e-01 
3.142500000000e+01 5.519054607414e-01 
3.142500000000e+01 5.519054607414e-01 
3.142500000000e+01 5.519054607414e-01 
3.142500000000e+01 5.519054607414e-01 
3.145000000000e+01 5.492543883110e-01 
3.145000000000e+01 5.492543883110e-01 
3.145000000000e+01 5.492543883110e-01 
3.145000000000e+01 5.492543883110e-01 
3.145000000000e+01 5.492543883110e-01 
3.147500000000e+01 5.466580098318e-01 
3.147500000000e+01 5.466580098318e-01 
3.147500000000e+01 5.466580098318e-01 
3.147500000000e+01 5.466580098318e-01 
3.147500000000e+01 5.466580098318e-01 
3.150000000000e+01 5.441144101810e-01 
3.150000000000e+01 5.441144101810e-01 
3.150000000000e+01 5.441144101810e-01 
3.150000000000e+01 5.441144101810e-01 
3.150000000000e+01 5.441144101810e-01 
3.152500000000e+01 5.416217673588e-01 
3.152500000000e+01 5.416217673588e-01 
3.152500000000e+01 5.416217673588e-01 
3.152500000000e+01 5.416217673588e-01 
3.152500000000e+01 5.416217673588e-01 
3.155000000000e+01 5.391783467591e-01 
3.155000000000e+01 5.391783467591e-01 
3.155000000000e+01 5.391783467591e-01 
3.155000000000e+01 5.391783467591e-01 
3.155000000000e+01 5.391783467591e-01 
3.157500000000e+01 5.367824958643e-01 
3.157500000000e+01 5.367824958643e-01 
3.157500000000e+01 5.367824958643e-01 
3.157500000000e+01 5.367824958643e-01 
3.157500000000e+01 5.367824958643e-01 
3.160000000000e+01 5.344326393247e-01 
3.160000000000e+01 5.344326393247e-01 
3.160000000000e+01 5.344326393247e-01 
3.160000000000e+01 5.344326393247e-01 
3.160000000000e+01 5.344326393247e-01 
3.162500000000e+01 5.321272743928e-01 
3.162500000000e+01 5.321272743928e-01 
3.162500000000e+01 5.321272743928e-01 
3.162500000000e+01 5.321272743928e-01 
3.162500000000e+01 5.321272743928e-01 
3.165000000000e+01 5.298649666811e-01 
3.165000000000e+01 5.298649666811e-01 
3.165000000000e+01 5.298649666811e-01 
3.165000000000e+01 5.298649666811e-01 
3.165000000000e+01 5.298649666811e-01 
3.167500000000e+01 5.276443462180e-01 
3.167500000000e+01 5.276443462180e-01 
3.167500000000e+01 5.276443462180e-01 
3.167500000000e+01 5.276443462180e-01 
3.167500000000e+01 5.276443462180e-01 
3.170000000000e+01 5.254641037767e-01 
3.170000000000e+01 5.254641037767e-01 
3.170000000000e+01 5.254641037767e-01 
3.170000000000e+01 5.254641037767e-01 
3.170000000000e+01 5.254641037767e-01 
3.172500000000e+01 5.233229874560e-01 
3.172500000000e+01 5.233229874560e-01 
3.172500000000e+01 5.233229874560e-01 
3.172500000000e+01 5.233229874560e-01 
3.172500000000e+01 5.233229874560e-01 
3.175000000000e+01 5.212197994921e-01 
3.175000000000e+01 5.212197994921e-01 
3.175000000000e+01 5.212197994921e-01 
3.175000000000e+01 5.212197994921e-01 
3.175000000000e+01 5.212197994921e-01 
3.177500000000e+01 5.191533932842e-01 
3.177500000000e+01 5.191533932842e-01 
3.177500000000e+01 5.191533932842e-01 
3.177500000000e+01 5.191533932842e-01 
3.177500000000e+01 5.191533932842e-01 
3.180000000000e+01 5.171226706164e-01 
3.180000000000e+01 5.171226706164e-01 
3.180000000000e+01 5.171226706164e-01 
3.180000000000e+01 5.171226706164e-01 
3.180000000000e+01 5.171226706164e-01 
3.182500000000e+01 5.151265790614e-01 
3.182500000000e+01 5.151265790614e-01 
3.182500000000e+01 5.151265790614e-01 
3.182500000000e+01 5.151265790614e-01 
3.182500000000e+01 5.151265790614e-01 
3.185000000000e+01 5.131641095520e-01 
3.185000000000e+01 5.131641095520e-01 
3.185000000000e+01 5.131641095520e-01 
3.185000000000e+01 5.131641095520e-01 
3.185000000000e+01 5.131641095520e-01 
3.187500000000e+01 5.112342941078e-01 
3.187500000000e+01 5.112342941078e-01 
3.187500000000e+01 5.112342941078e-01 
3.187500000000e+01 5.112342941078e-01 
3.187500000000e+01 5.112342941078e-01 
3.190000000000e+01 5.093362037054e-01 
3.190000000000e+01 5.093362037054e-01 
3.190000000000e+01 5.093362037054e-01 
3.190000000000e+01 5.093362037054e-01 
3.190000000000e+01 5.093362037054e-01 
3.192500000000e+01 5.074689462822e-01 
3.192500000000e+01 5.074689462822e-01 
3.192500000000e+01 5.074689462822e-01 
3.192500000000e+01 5.074689462822e-01 
3.192500000000e+01 5.074689462822e-01 
3.195000000000e+01 5.056316648631e-01 
3.195000000000e+01 5.056316648631e-01 
3.195000000000e+01 5.056316648631e-01 
3.195000000000e+01 5.056316648631e-01 
3.195000000000e+01 5.056316648631e-01 
3.197500000000e+01 5.038235358020e-01 
3.197500000000e+01 5.038235358020e-01 
3.197500000000e+01 5.038235358020e-01 
3.197500000000e+01 5.038235358020e-01 
3.197500000000e+01 5.038235358020e-01 
3.200000000000e+01 5.015195199245e-01 
3.200000000000e+01 5.015219004688e-01 
3.200000000000e+01 5.015230892030e-01 
3.200000000000e+01 5.015207107090e-01 
3.200000000000e+01 5.015242769107e-01 
3.277806092646e+01 4.568779379154e-01 
3.277906126874e+01 4.568300733443e-01 
3.278006161103e+01 4.567822299355e-01 
3.278106195331e+01 4.567344076733e-01 
3.278206229559e+01 4.566866065420e-01 
3.355612185292e+01 4.262991277062e-01 
3.355812253748e+01 4.262307744081e-01 
3.356012322205e+01 4.261624707602e-01 
3.356212390662e+01 4.260942167004e-01 
3.356412459118e+01 4.260260121665e-01 
3.433418277937e+01 4.032602749549e-01 
3.433718380623e+01 4.031813305923e-01 
3.434018483308e+01 4.031024574344e-01 
3.434318585993e+01 4.030236553696e-01 
3.434618688678e+01 4.029449242864e-01 
3.511224370583e+01 3.850281670025e-01 
3.511624507497e+01 3.849434610684e-01 
3.512024644410e+01 3.848588418732e-01 
3.512424781323e+01 3.847743092621e-01 
3.512824918237e+01 3.846898630810e-01 
3.589030463229e+01 3.700783448340e-01 
3.589530634371e+01 3.699904600211e-01 
3.590030805513e+01 3.699026731223e-01 
3.590530976654e+01 3.698149839475e-01 
3.591031147796e+01 3.697273923068e-01 
 TITLE = "Profiles along polylines"
 VARIABLES = "DIST" "SATURATION1" 
 ZONE T="TIME=1.797693134862e+308"
8.903046322915e-01 1.000000000000e+00 
8.953063437089e-01 1.000000000000e+00 
9.003080551263e-01 1.000000000000e+00 
9.053097665437e-01 1.000000000000e+00 
9.103114779611e-01 1.000000000000e+00 
1.860627811215e+00 1.000000000000e+00 
1.865462798918e+00 1.000000000000e+00 
1.870297786622e+00 1.000000000000e+00 
1.875132774325e+00 1.000000000000e+00 
1.879967762029e+00 1.000000000000e+00 
2.830950990138e+00 1.000000000000e+00 
2.835619254127e+00 1.000000000000e+00 
2.840287518117e+00 1.000000000000e+00 
2.844955782107e+00 1.000000000000e+00 
2.849624046096e+00 1.000000000000e+00 
3.801274169062e+00 1.000000000000e+00 
3.805775709338e+00 1.000000000000e+00 
3.810277249613e+00 1.000000000000e+00 
3.814778789889e+00 1.000000000000e+00 
3.819280330165e+00 1.000000000000e+00 
4.771597347986e+00 1.000000000000e+00 
4.775932164547e+00 1.000000000000e+00 
4.780266981109e+00 1.000000000000e+00 
4.784601797671e+00 1.000000000000e+00 
4.788936614233e+00 1.000000000000e+00 
5.741920526909e+00 1.000000000000e+00 
5.746088619756e+00 1.000000000000e+00 
5.750256712604e+00 1.000000000000e+00 
5.754424805452e+00 1.000000000000e+00 
5.758592898300e+00 1.000000000000e+00 
6.712243705831e+00 1.000000000000e+00 
6.716245074965e+00 1.000000000000e+00 
6.720246444099e+00 1.000000000000e+00 
6.724247813233e+00 1.000000000000e+00 
6.728249182367e+00 1.000000000000e+00 
7.682566884754e+00 1.000000000000e+00 
7.686401530174e+00 1.000000000000e+00 
7.690236175594e+00 1.000000000000e+00 
7.694070821014e+00 1.000000000000e+00 
7.697905466434e+00 1.000000000000e+00 
8.652890063677e+00 1.000000000000e+00 
8.656557985383e+00 1.000000000000e+00 
8.660225907089e+00 1.000000000000e+00 
8.663893828795e+00 1.000000000000e+00 
8.667561750501e+00 1.000000000000e+00 
9.623213242597e+00 1.000000000000e+00 
9.626714440589e+00 1.000000000000e+00 
9.630215638582e+00 1.000000000000e+00 
9.633716836574e+00 1.000000000000e+00 
9.637218034566e+00 1.000000000000e+00 
1.059353642152e+01 1.000000000000e+00 
1.059687089580e+01 1.000000000000e+00 
1.060020537007e+01 1.000000000000e+00 
1.060353984435e+01 1.000000000000e+00 
1.060687431863e+01 1.000000000000e+00 
1.156385960044e+01 1.000000000000e+00 
1.156702735100e+01 1.000000000000e+00 
1.157019510157e+01 1.000000000000e+00 
1.157336285213e+01 1.000000000000e+00 
1.157653060269e+01 1.000000000000e+00 
1.253418277936e+01 1.000000000000e+00 
1.253718380621e+01 1.000000000000e+00 
1.254018483306e+01 1.000000000000e+00 
1.254318585991e+01 1.000000000000e+00 
1.254618688676e+01 1.000000000000e+00 
1.350450595828e+01 1.000000000000e+00 
1.350734026141e+01 1.000000000000e+00 
1.351017456455e+01 1.000000000000e+00 
1.351300886769e+01 1.000000000000e+00 
1.351584317082e+01 1.000000000000e+00 
1.447482913720e+01 1.000000000000e+00 
1.447749671662e+01 1.000000000000e+00 
1.448016429604e+01 1.000000000000e+00 
1.448283187547e+01 1.000000000000e+00 
1.448549945489e+01 1.000000000000e+00 
1.544515231612e+01 1.000000000000e+00 
1.544765317183e+01 1.000000000000e+00 
1.545015402754e+01 1.000000000000e+00 
1.545265488324e+01 1.000000000000e+00 
1.545515573895e+01 1.000000000000e+00 
1.641547549504e+01 1.000000000000e+00 
1.641780962704e+01 1.000000000000e+00 
1.642014375903e+01 1.000000000000e+00 
1.642247789103e+01 1.000000000000e+00 
1.642481202302e+01 1.000000000000e+00 
1.738579867397e+01 1.000000000000e+00 
1.738796608225e+01 1.000000000000e+00 
1.739013349053e+01 1.000000000000e+00 
1.739230089881e+01 1.000000000000e+00 
1.739446830709e+01 1.000000000000e+00 
1.835612185289e+01 1.000000000000e+00 
1.835812253746e+01 1.000000000000e+00 
1.836012322203e+01 1.000000000000e+00 
1.836212390660e+01 1.000000000000e+00 
1.836412459116e+01 1.000000000000e+00 
1.932644503182e+01 1.000000000000e+00 
1.932827899267e+01 1.000000000000e+00 
1.933011295353e+01 1.000000000000e+00 
1.933194691438e+01 1.000000000000e+00 
1.933378087523e+01 1.000000000000e+00 
2.029676821075e+01 1.000000000000e+00 
2.029843544788e+01 1.000000000000e+00 
2.030010268502e+01 1.000000000000e+00 
2.030176992216e+01 1.000000000000e+00 
2.030343715930e+01 1.000000000000e+00 
2.126709138967e+01 1.000000000000e+00 
2.126859190310e+01 1.000000000000e+00 
2.127009241652e+01 1.000000000000e+00 
2.127159292995e+01 1.000000000000e+00 
2.127309344337e+01 1.000000000000e+00 
2.223741456860e+01 1.000000000000e+00 
2.223874835831e+01 1.000000000000e+00 
2.224008214802e+01 1.000000000000e+00 
2.224141593773e+01 1.000000000000e+00 
2.224274972744e+01 1.000000000000e+00 
2.320773774752e+01 1.000000000000e+00 
2.320890481352e+01 1.000000000000e+00 
2.321007187952e+01 1.000000000000e+00 
2.321123894551e+01 1.000000000000e+00 
2.321240601151e+01 1.000000000000e+00 
2.417806092645e+01 1.000000000000e+00 
2.417906126873e+01 1.000000000000e+00 
2.418006161101e+01 1.000000000000e+00 
2.418106195330e+01 1.000000000000e+00 
2.418206229558e+01 1.000000000000e+00 
2.514838410537e+01 1.000000000000e+00 
2.514921772394e+01 1.000000000000e+00 
2.515005134251e+01 1.000000000000e+00 
2.515088496108e+01 1.000000000000e+00 
2.515171857965e+01 1.000000000000e+00 
2.611870728430e+01 1.000000000000e+00 
2.611937417915e+01 1.000000000000e+00 
2.612004107401e+01 1.000000000000e+00 
2.612070796886e+01 1.000000000000e+00 
2.612137486372e+01 1.000000000000e+00 
2.708903046322e+01 1.000000000000e+00 
2.708953063437e+01 1.000000000000e+00 
2.709003080551e+01 1.000000000000e+00 
2.709053097665e+01 1.000000000000e+00 
2.709103114779e+01 1.000000000000e+00 
2.805935364215e+01 1.000000000000e+00 
2.805968708958e+01 1.000000000000e+00 
2.806002053700e+01 1.000000000000e+00 
2.806035398443e+01 1.000000000000e+00 
2.806068743186e+01 1.000000000000e+00 
2.902967682107e+01 1.000000000000e+00 
2.902984354479e+01 1.000000000000e+00 
2.903001026850e+01 1.000000000000e+00 
2.903017699222e+01 1.000000000000e+00 
2.903034371593e+01 1.000000000000e+00 
3.000000000000e+01 1.000000000000e+00 
3.000000000000e+01 1.000000000000e+00 
3.000000000000e+01 1.000000000000e+00 
3.000000000000e+01 1.000000000000e+00 
3.000000000000e+01 1.000000000000e+00 
3.002500000000e+01 1.000000000000e+00 
3.002500000000e+01 1.000000000000e+00 
3.002500000000e+01 1.000000000000e+00 
3.002500000000e+01 1.000000000000e+00 
3.002500000000e+01 1.000000000000e+00 
3.005000000000e+01 1.000000000000e+00 
3.005000000000e+01 1.000000000000e+00 
3.005000000000e+01 1.000000000000e+00 
3.005000000000e+01 1.000000000000e+00 
3.005000000000e+01 1.000000000000e+00 
3.007500000000e+01 1.000000000000e+00 
3.007500000000e+01 1.000000000000e+00 
3.007500000000e+01 1.000000000000e+00 
3.007500000000e+01 1.000000000000e+00 
3.007500000000e+01 1.000000000000e+00 
3.010000000000e+01 1.000000000000e+00 
3.010000000000e+01 1.000000000000e+00 
3.010000000000e+01 1.000000000000e+00 
3.010000000000e+01 1.000000000000e+00 
3.010000000000e+01 1.000000000000e+00 
3.012500000000e+01 1.000000000000e+00 
3.012500000000e+01 1.000000000000e+00 
3.012500000000e+01 1.000000000000e+00 
3.012500000000e+01 1.000000000000e+00 
3.012500000000e+01 1.000000000000e+00 
3.015000000000e+01 1.000000000000e+00 
3.015000000000e+01 1.000000000000e+00 
3.015000000000e+01 1.000000000000e+00 