 TITLE = "Profiles along polylines"
 VARIABLES = "DIST" "SATURATION1" 
 ZONE T="TIME=0.000000000000e+00"
1.140390203161e+00 1.000000000000e+00 
1.145391914578e+00 1.000000000000e+00 
1.150393625996e+00 1.000000000000e+00 
1.155395337413e+00 1.000000000000e+00 
1.160397048830e+00 1.000000000000e+00 
2.102377196389e+00 1.000000000000e+00 
2.107212184092e+00 1.000000000000e+00 
2.112047171795e+00 1.000000000000e+00 
2.116882159499e+00 1.000000000000e+00 
2.121717147202e+00 1.000000000000e+00 
3.064364189616e+00 1.000000000000e+00 
3.069032453605e+00 1.000000000000e+00 
3.073700717595e+00 1.000000000000e+00 
3.078368981585e+00 1.000000000000e+00 
3.083037245574e+00 1.000000000000e+00 
4.026351182844e+00 1.000000000000e+00 
4.030852723120e+00 1.000000000000e+00 
4.035354263396e+00 1.000000000000e+00 
4.039855803671e+00 1.000000000000e+00 
4.044357343947e+00 1.000000000000e+00 
4.988338176072e+00 1.000000000000e+00 
4.992672992634e+00 1.000000000000e+00 
4.997007809196e+00 1.000000000000e+00 
5.001342625758e+00 1.000000000000e+00 
5.005677442319e+00 1.000000000000e+00 
5.950325169300e+00 1.000000000000e+00 
5.954493262147e+00 1.000000000000e+00 
5.958661354995e+00 1.000000000000e+00 
5.962829447843e+00 1.000000000000e+00 
5.966997540691e+00 1.000000000000e+00 
6.912312162527e+00 1.000000000000e+00 
6.916313531661e+00 1.000000000000e+00 
6.920314900795e+00 1.000000000000e+00 
6.924316269928e+00 1.000000000000e+00 
6.928317639062e+00 1.000000000000e+00 
7.874299155754e+00 1.000000000000e+00 
7.878133801174e+00 1.000000000000e+00 
7.881968446594e+00 1.000000000000e+00 
7.885803092014e+00 1.000000000000e+00 
7.889637737434e+00 1.000000000000e+00 
8.836286148981e+00 1.000000000000e+00 
8.839954070687e+00 1.000000000000e+00 
8.843621992393e+00 1.000000000000e+00 
8.847289914099e+00 1.000000000000e+00 
8.850957835805e+00 1.000000000000e+00 
9.798273142206e+00 1.000000000000e+00 
9.801774340198e+00 1.000000000000e+00 
9.805275538190e+00 1.000000000000e+00 
9.808776736182e+00 1.000000000000e+00 
9.812277934175e+00 1.000000000000e+00 
1.076026013543e+01 1.000000000000e+00 
1.076359460971e+01 1.000000000000e+00 
1.076692908399e+01 1.000000000000e+00 
1.077026355827e+01 1.000000000000e+00 
1.077359803254e+01 1.000000000000e+00 
1.172224712866e+01 1.000000000000e+00 
1.172541487922e+01 1.000000000000e+00 
1.172858262978e+01 1.000000000000e+00 
1.173175038035e+01 1.000000000000e+00 
1.173491813091e+01 1.000000000000e+00 
1.268423412188e+01 1.000000000000e+00 
1.268723514873e+01 1.000000000000e+00 
1.269023617558e+01 1.000000000000e+00 
1.269323720243e+01 1.000000000000e+00 
1.269623822928e+01 1.000000000000e+00 
1.364622111510e+01 1.000000000000e+00 
1.364905541824e+01 1.000000000000e+00 
1.365188972138e+01 1.000000000000e+00 
1.365472402451e+01 1.000000000000e+00 
1.365755832765e+01 1.000000000000e+00 
1.460820810833e+01 1.000000000000e+00 
1.461087568775e+01 1.000000000000e+00 
1.461354326717e+01 1.000000000000e+00 
1.461621084660e+01 1.000000000000e+00 
1.461887842602e+01 1.000000000000e+00 
1.557019510155e+01 1.000000000000e+00 
1.557269595726e+01 1.000000000000e+00 
1.557519681297e+01 1.000000000000e+00 
1.557769766868e+01 1.000000000000e+00 
1.558019852439e+01 1.000000000000e+00 
1.653218209478e+01 1.000000000000e+00 
1.653451622678e+01 1.000000000000e+00 
1.653685035877e+01 1.000000000000e+00 
1.653918449077e+01 1.000000000000e+00 
1.654151862276e+01 1.000000000000e+00 
1.749416908801e+01 1.000000000000e+00 
1.749633649629e+01 1.000000000000e+00 
1.749850390457e+01 1.000000000000e+00 
1.750067131286e+01 1.000000000000e+00 
1.750283872114e+01 1.000000000000e+00 
1.845615608124e+01 1.000000000000e+00 
1.845815676581e+01 1.000000000000e+00 
1.846015745038e+01 1.000000000000e+00 
1.846215813494e+01 1.000000000000e+00 
1.846415881951e+01 1.000000000000e+00 
1.941814307447e+01 1.000000000000e+00 
1.941997703533e+01 1.000000000000e+00 
1.942181099618e+01 1.000000000000e+00 
1.942364495703e+01 1.000000000000e+00 
1.942547891788e+01 1.000000000000e+00 
2.038013006770e+01 1.000000000000e+00 
2.038179730484e+01 1.000000000000e+00 
2.038346454198e+01 1.000000000000e+00 
2.038513177912e+01 1.000000000000e+00 
2.038679901626e+01 1.000000000000e+00 
2.134211706093e+01 1.000000000000e+00 
2.134361757436e+01 1.000000000000e+00 
2.134511808778e+01 1.000000000000e+00 
2.134661860121e+01 1.000000000000e+00 
2.134811911463e+01 1.000000000000e+00 
2.230410405416e+01 1.000000000000e+00 
2.230543784387e+01 1.000000000000e+00 
2.230677163358e+01 1.000000000000e+00 
2.230810542330e+01 1.000000000000e+00 
2.230943921301e+01 1.000000000000e+00 
2.326609104739e+01 1.000000000000e+00 
2.326725811339e+01 1.000000000000e+00 
2.326842517939e+01 1.000000000000e+00 
2.326959224538e+01 1.000000000000e+00 
2.327075931138e+01 1.000000000000e+00 
2.422807804062e+01 1.000000000000e+00 
2.422907838290e+01 1.000000000000e+00 
2.423007872519e+01 1.000000000000e+00 
2.423107906747e+01 1.000000000000e+00 
2.423207940976e+01 1.000000000000e+00 
2.519006503385e+01 1.000000000000e+00 
2.519089865242e+01 1.000000000000e+00 
2.519173227099e+01 1.000000000000e+00 
2.519256588956e+01 1.000000000000e+00 
2.519339950813e+01 1.000000000000e+00 
2.615205202708e+01 1.000000000000e+00 
2.615271892194e+01 1.000000000000e+00 
2.615338581679e+01 1.000000000000e+00 
2.615405271165e+01 1.000000000000e+00 
2.615471960650e+01 1.000000000000e+00 
2.711403902031e+01 1.000000000000e+00 
2.711453919145e+01 1.000000000000e+00 
2.711503936259e+01 1.000000000000e+00 
2.711553953374e+01 1.000000000000e+00 
2.711603970488e+01 1.000000000000e+00 
2.807602601354e+01 1.000000000000e+00 
2.807635946097e+01 1.000000000000e+00 
2.807669290840e+01 1.000000000000e+00 
2.807702635582e+01 1.000000000000e+00 
2.807735980325e+01 1.000000000000e+00 
2.903801300677e+01 1.000000000000e+00 
2.903817973048e+01 1.000000000000e+00 
2.903834645420e+01 1.000000000000e+00 
2.903851317791e+01 1.000000000000e+00 
2.903867990163e+01 1.000000000000e+00 
3.000000000000e+01 1.000000000000e+00 
3.000000000000e+01 1.000000000000e+00 
3.000000000000e+01 1.000000000000e+00 
3.000000000000e+01 1.000000000000e+00 
3.000000000000e+01 1.000000000000e+00 
3.002500000000e+01 9.876207709446e-01 
3.002500000000e+01 9.876207709446e-01 
3.002500000000e+01 9.876207709446e-01 
3.002500000000e+01 9.876207709446e-01 
3.002500000000e+01 9.876207709446e-01 
3.005000000000e+01 9.697756439369e-01 
3.005000000000e+01 9.697756439369e-01 
3.005000000000e+01 9.697756439369e-01 
3.005000000000e+01 9.697756439369e-01 
3.005000000000e+01 9.697756439369e-01 
3.007500000000e+01 9.507134089444e-01 
3.007500000000e+01 9.507134089444e-01 
3.007500000000e+01 9.507134089444e-01 
3.007500000000e+01 9.507134089444e-01 
3.007500000000e+01 9.507134089444e-01 
3.010000000000e+01 9.315621650298e-01 
3.010000000000e+01 9.315621650298e-01 
3.010000000000e+01 9.315621650298e-01 
3.010000000000e+01 9.315621650298e-01 
3.010000000000e+01 9.315621650298e-01 
3.012500000000e+01 9.128758324042e-01 
3.012500000000e+01 9.128758324042e-01 
3.012500000000e+01 9.128758324042e-01 
3.012500000000e+01 9.128758324042e-01 
3.012500000000e+01 9.128758324042e-01 
3.015000000000e+01 8.949248043380e-01 
3.015000000000e+01 8.949248043380e-01 
3.015000000000e+01 8.949248043380e-01 
3.015000000000e+01 8.949248043380e-01 
3.015000000000e+01 8.949248043380e-01 
3.017500000000e+01 8.778290027968e-01 
3.017500000000e+01 8.778290027968e-01 
3.017500000000e+01 8.778290027968e-01 
3.017500000000e+01 8.778290027968e-01 
3.017500000000e+01 8.778290027968e-01 
3.020000000000e+01 8.616255702900e-01 
3.020000000000e+01 8.616255702900e-01 
3.020000000000e+01 8.616255702900e-01 
3.020000000000e+01 8.616255702900e-01 
3.020000000000e+01 8.616255702900e-01 
3.022500000000e+01 8.463059583920e-01 
3.022500000000e+01 8.463059583920e-01 
3.022500000000e+01 8.463059583920e-01 
3.022500000000e+01 8.463059583920e-01 
3.022500000000e+01 8.463059583920e-01 
3.025000000000e+01 8.318370344398e-01 
3.025000000000e+01 8.318370344398e-01 
3.025000000000e+01 8.318370344398e-01 
3.025000000000e+01 8.318370344398e-01 
3.025000000000e+01 8.318370344398e-01 
3.027500000000e+01 8.181733156316e-01 
3.027500000000e+01 8.181733156316e-01 
3.027500000000e+01 8.181733156316e-01 
3.027500000000e+01 8.181733156316e-01 
3.027500000000e+01 8.181733156316e-01 
3.030000000000e+01 8.052640970350e-01 
3.030000000000e+01 8.052640970350e-01 
3.030000000000e+01 8.052640970350e-01 
3.030000000000e+01 8.052640970350e-01 
3.030000000000e+01 8.052640970350e-01 
3.032500000000e+01 7.930575753856e-01 
3.032500000000e+01 7.930575753856e-01 
3.032500000000e+01 7.930575753856e-01 
3.032500000000e+01 7.930575753856e-01 
3.032500000000e+01 7.930575753856e-01 
3.035000000000e+01 7.815031815402e-01 
3.035000000000e+01 7.815031815402e-01 
3.035000000000e+01 7.815031815402e-01 
3.035000000000e+01 7.815031815402e-01 
3.035000000000e+01 7.815031815402e-01 
3.037500000000e+01 7.705528376764e-01 
3.037500000000e+01 7.705528376764e-01 
3.037500000000e+01 7.705528376764e-01 
3.037500000000e+01 7.705528376764e-01 
3.037500000000e+01 7.705528376764e-01 
3.040000000000e+01 7.601615689674e-01 
3.040000000000e+01 7.601615689674e-01 
3.040000000000e+01 7.601615689674e-01 
3.040000000000e+01 7.601615689674e-01 
3.040000000000e+01 7.601615689674e-01 
3.042500000000e+01 7.502877306002e-01 
3.042500000000e+01 7.502877306002e-01 
3.042500000000e+01 7.502877306002e-01 
3.042500000000e+01 7.502877306002e-01 
3.042500000000e+01 7.502877306002e-01 
3.045000000000e+01 7.408930096824e-01 
3.045000000000e+01 7.408930096824e-01 
3.045000000000e+01 7.408930096824e-01 
3.045000000000e+01 7.408930096824e-01 
3.045000000000e+01 7.408930096824e-01 
3.047500000000e+01 7.319422999608e-01 
3.047500000000e+01 7.319422999608e-01 
3.047500000000e+01 7.319422999608e-01 
3.047500000000e+01 7.319422999608e-01 
3.047500000000e+01 7.319422999608e-01 
3.050000000000e+01 7.234035093991e-01 
3.050000000000e+01 7.234035093991e-01 
3.050000000000e+01 7.234035093991e-01 
3.050000000000e+01 7.234035093991e-01 
3.050000000000e+01 7.234035093991e-01 
3.052500000000e+01 7.152473371957e-01 
3.052500000000e+01 7.152473371957e-01 
3.052500000000e+01 7.152473371957e-01 
3.052500000000e+01 7.152473371957e-01 
3.052500000000e+01 7.152473371957e-01 
3.055000000000e+01 7.074470422112e-01 
3.055000000000e+01 7.074470422112e-01 
3.055000000000e+01 7.074470422112e-01 
3.055000000000e+01 7.074470422112e-01 
3.055000000000e+01 7.074470422112e-01 
3.057500000000e+01 6.999782156504e-01 
3.057500000000e+01 6.999782156504e-01 
3.057500000000e+01 6.999782156504e-01 
3.057500000000e+01 6.999782156504e-01 
3.057500000000e+01 6.999782156504e-01 
3.060000000000e+01 6.928185651596e-01 
3.060000000000e+01 6.928185651596e-01 
3.060000000000e+01 6.928185651596e-01 
3.060000000000e+01 6.928185651596e-01 
3.060000000000e+01 6.928185651596e-01 
3.062500000000e+01 6.859477139679e-01 
3.062500000000e+01 6.859477139679e-01 
3.062500000000e+01 6.859477139679e-01 
3.062500000000e+01 6.859477139679e-01 
3.062500000000e+01 6.859477139679e-01 
3.065000000000e+01 6.793470165436e-01 
3.065000000000e+01 6.793470165436e-01 
3.065000000000e+01 6.793470165436e-01 
3.065000000000e+01 6.793470165436e-01 
3.065000000000e+01 6.793470165436e-01 
3.067500000000e+01 6.729993909360e-01 
3.067500000000e+01 6.729993909360e-01 
3.067500000000e+01 6.729993909360e-01 
3.067500000000e+01 6.729993909360e-01 
3.067500000000e+01 6.729993909360e-01 
3.070000000000e+01 6.668891672206e-01 
3.070000000000e+01 6.668891672206e-01 
3.070000000000e+01 6.668891672206e-01 
3.070000000000e+01 6.668891672206e-01 
3.070000000000e+01 6.668891672206e-01 
3.072500000000e+01 6.610019510587e-01 
3.072500000000e+01 6.610019510587e-01 
3.072500000000e+01 6.610019510587e-01 
3.072500000000e+01 6.610019510587e-01 
3.072500000000e+01 6.610019510587e-01 
3.075000000000e+01 6.553245011865e-01 
3.075000000000e+01 6.553245011865e-01 
3.075000000000e+01 6.553245011865e-01 
3.075000000000e+01 6.553245011865e-01 
3.075000000000e+01 6.553245011865e-01 
3.077500000000e+01 6.498446195878e-01 
3.077500000000e+01 6.498446195878e-01 
3.077500000000e+01 6.498446195878e-01 
3.077500000000e+01 6.498446195878e-01 
3.077500000000e+01 6.498446195878e-01 
3.080000000000e+01 6.445510531188e-01 
3.080000000000e+01 6.445510531188e-01 
3.080000000000e+01 6.445510531188e-01 
3.080000000000e+01 6.445510531188e-01 
3.080000000000e+01 6.445510531188e-01 
3.082500000000e+01 6.394334054150e-01 
3.082500000000e+01 6.394334054150e-01 
3.082500000000e+01 6.394334054150e-01 
3.082500000000e+01 6.394334054150e-01 
3.082500000000e+01 6.394334054150e-01 
3.085000000000e+01 6.344820579917e-01 
3.085000000000e+01 6.344820579917e-01 
3.085000000000e+01 6.344820579917e-01 
3.085000000000e+01 6.344820579917e-01 
3.085000000000e+01 6.344820579917e-01 
3.087500000000e+01 6.296880995462e-01 
3.087500000000e+01 6.296880995462e-01 
3.087500000000e+01 6.296880995462e-01 
3.087500000000e+01 6.296880995462e-01 
3.087500000000e+01 6.296880995462e-01 
3.090000000000e+01 6.250432625624e-01 
3.090000000000e+01 6.250432625624e-01 
3.090000000000e+01 6.250432625624e-01 
3.090000000000e+01 6.250432625624e-01 
3.090000000000e+01 6.250432625624e-01 
3.092500000000e+01 6.205398664126e-01 
3.092500000000e+01 6.205398664126e-01 
3.092500000000e+01 6.205398664126e-01 
3.092500000000e+01 6.205398664126e-01 
3.092500000000e+01 6.205398664126e-01 
3.095000000000e+01 6.161707662369e-01 
3.095000000000e+01 6.161707662369e-01 
3.095000000000e+01 6.161707662369e-01 
3.095000000000e+01 6.161707662369e-01 
3.095000000000e+01 6.161707662369e-01 
3.097500000000e+01 6.119293069613e-01 
3.097500000000e+01 6.119293069613e-01 
3.097500000000e+01 6.119293069613e-01 
3.097500000000e+01 6.119293069613e-01 
3.097500000000e+01 6.119293069613e-01 
3.100000000000e+01 6.078092818871e-01 
3.100000000000e+01 6.078092818871e-01 
3.100000000000e+01 6.078092818871e-01 
3.100000000000e+01 6.078092818871e-01 
3.100000000000e+01 6.078092818871e-01 
3.102500000000e+01 6.038048953494e-01 
3.102500000000e+01 6.038048953494e-01 
3.102500000000e+01 6.038048953494e-01 
3.102500000000e+01 6.038048953494e-01 
3.102500000000e+01 6.038048953494e-01 
3.105000000000e+01 5.999107290013e-01 
3.105000000000e+01 5.999107290013e-01 
3.105000000000e+01 5.999107290013e-01 
3.105000000000e+01 5.999107290013e-01 
3.105000000000e+01 5.999107290013e-01 
3.107500000000e+01 5.961217113309e-01 
3.107500000000e+01 5.961217113309e-01 
3.107500000000e+01 5.961217113309e-01 
3.107500000000e+01 5.961217113309e-01 
3.107500000000e+01 5.961217113309e-01 
3.110000000000e+01 5.924330900627e-01 
3.110000000000e+01 5.924330900627e-01 
3.110000000000e+01 5.924330900627e-01 
3.110000000000e+01 5.924330900627e-01 
3.110000000000e+01 5.924330900627e-01 
3.112500000000e+01 5.888404071392e-01 
3.112500000000e+01 5.888404071392e-01 
3.112500000000e+01 5.888404071392e-01 
3.112500000000e+01 5.888404071392e-01 
3.112500000000e+01 5.888404071392e-01 
3.115000000000e+01 5.853394760078e-01 
3.115000000000e+01 5.853394760078e-01 
3.115000000000e+01 5.853394760078e-01 
3.115000000000e+01 5.853394760078e-01 
3.115000000000e+01 5.853394760078e-01 
3.117500000000e+01 5.819263609758e-01 
3.117500000000e+01 5.819263609758e-01 
3.117500000000e+01 5.819263609758e-01 
3.117500000000e+01 5.819263609758e-01 
3.117500000000e+01 5.819263609758e-01 
3.120000000000e+01 5.785973584173e-01 
3.120000000000e+01 5.785973584173e-01 
3.120000000000e+01 5.785973584173e-01 
3.120000000000e+01 5.785973584173e-01 
3.120000000000e+01 5.785973584173e-01 
3.122500000000e+01 5.753489796460e-01 
3.122500000000e+01 5.753489796460e-01 
3.122500000000e+01 5.753489796460e-01 
3.122500000000e+01 5.753489796460e-01 
3.122500000000e+01 5.753489796460e-01 
3.125000000000e+01 5.721779352840e-01 
3.125000000000e+01 5.721779352840e-01 
3.125000000000e+01 5.721779352840e-01 
3.125000000000e+01 5.721779352840e-01 
3.125000000000e+01 5.721779352840e-01 
3.127500000000e+01 5.690811209785e-01 
3.127500000000e+01 5.690811209785e-01 
3.127500000000e+01 5.690811209785e-01 
3.127500000000e+01 5.690811209785e-01 
3.127500000000e+01 5.690811209785e-01 
3.130000000000e+01 5.660556043336e-01 
3.130000000000e+01 5.660556043336e-01 
3.130000000000e+01 5.660556043336e-01 
3.130000000000e+01 5.660556043336e-01 
3.130000000000e+01 5.660556043336e-01 
3.132500000000e+01 5.630986129391e-01 
3.132500000000e+01 5.630986129391e-01 
3.132500000000e+01 5.630986129391e-01 
3.132500000000e+01 5.630986129391e-01 
3.132500000000e+01 5.630986129391e-01 
3.135000000000e+01 5.602075233904e-01 
3.135000000000e+01 5.602075233904e-01 
3.135000000000e+01 5.602075233904e-01 
3.135000000000e+01 5.602075233904e-01 
3.135000000000e+01 5.602075233904e-01 
3.137500000000e+01 5.573798512060e-01 
3.137500000000e+01 5.573798512060e-01 
3.137500000000e+01 5.573798512060e-01 
3.137500000000e+01 5.573798512060e-01 
3.137500000000e+01 5.573798512060e-01 
3.140000000000e+01 5.546132415581e-01 
3.140000000000e+01 5.546132415581e-01 
3.140000000000e+01 5.546132415581e-01 
3.140000000000e+01 5.546132415581e-01 
3.140000000000e+01 5.546132415581e-01 
3.142500000000e+01 5.519054607414e-01 
3.142500000000e+01 5.519054607414e-01 
3.142500000000e+01 5.519054607414e-01 
3.142500000000e+01 5.519054607414e-01 
3.142500000000e+01 5.519054607414e-01 
3.145000000000e+01 5.492543883110e-01 
3.145000000000e+01 5.492543883110e-01 
3.145000000000e+01 5.492543883110e-01 
3.145000000000e+01 5.492543883110e-01 
3.145000000000e+01 5.492543883110e-01 
3.147500000000e+01 5.466580098318e-01 
3.147500000000e+01 5.466580098318e-01 
3.147500000000e+01 5.466580098318e-01 
3.147500000000e+01 5.466580098318e-01 
3.147500000000e+01 5.466580098318e-01 
3.150000000000e+01 5.441144101810e-01 
3.150000000000e+01 5.441144101810e-01 
3.150000000000e+01 5.441144101810e-01 
3.150000000000e+01 5.441144101810e-01 
3.150000000000e+01 5.441144101810e-01 
3.152500000000e+01 5.416217673588e-01 
3.152500000000e+01 5.416217673588e-01 
3.152500000000e+01 5.416217673588e-01 
3.152500000000e+01 5.416217673588e-01 
3.152500000000e+01 5.416217673588e-01 
3.155000000000e+01 5.391783467591e-01 
3.155000000000e+01 5.391783467591e-01 
3.155000000000e+01 5.391783467591e-01 
3.155000000000e+01 5.391783467591e-01 
3.155000000000e+01 5.391783467591e-01 
3.157500000000e+01 5.367824958643e-01 
3.157500000000e+01 5.367824958643e-01 
3.157500000000e+01 5.367824958643e-01 
3.157500000000e+01 5.367824958643e-01 
3.157500000000e+01 5.367824958643e-01 
3.160000000000e+01 5.344326393247e-01 
3.160000000000e+01 5.344326393247e-01 
3.160000000000e+01 5.344326393247e-01 
3.160000000000e+01 5.344326393247e-01 
3.160000000000e+01 5.344326393247e-01 
3.162500000000e+01 5.321272743928e-01 
3.162500000000e+01 5.321272743928e-01 
3.162500000000e+01 5.321272743928e-01 
3.162500000000e+01 5.321272743928e-01 
3.162500000000e+01 5.321272743928e-01 
3.165000000000e+01 5.298649666811e-01 
3.165000000000e+01 5.298649666811e-01 
3.165000000000e+01 5.298649666811e-01 
3.165000000000e+01 5.298649666811e-01 
3.165000000000e+01 5.298649666811e-01 
3.167500000000e+01 5.276443462180e-01 
3.167500000000e+01 5.276443462180e-01 
3.167500000000e+01 5.276443462180e-01 
3.167500000000e+01 5.276443462180e-01 
3.167500000000e+01 5.276443462180e-01 
3.170000000000e+01 5.254641037767e-01 
3.170000000000e+01 5.254641037767e-01 
3.170000000000e+01 5.254641037767e-01 
3.170000000000e+01 5.254641037767e-01 
3.170000000000e+01 5.254641037767e-01 
3.172500000000e+01 5.233229874560e-01 
3.172500000000e+01 5.233229874560e-01 
3.172500000000e+01 5.233229874560e-01 
3.172500000000e+01 5.233229874560e-01 
3.172500000000e+01 5.233229874560e-01 
3.175000000000e+01 5.212197994921e-01 
3.175000000000e+01 5.212197994921e-01 
3.175000000000e+01 5.212197994921e-01 
3.175000000000e+01 5.212197994921e-01 
3.175000000000e+01 5.212197994921e-01 
3.177500000000e+01 5.191533932842e-01 
3.177500000000e+01 5.191533932842e-01 
3.177500000000e+01 5.191533932842e-01 
3.177500000000e+01 5.191533932842e-01 
3.177500000000e+01 5.191533932842e-01 
3.180000000000e+01 5.171226706164e-01 
3.180000000000e+01 5.171226706164e-01 
3.180000000000e+01 5.171226706164e-01 
3.180000000000e+01 5.171226706164e-01 
3.180000000000e+01 5.171226706164e-01 
3.182500000000e+01 5.151265790614e-01 
3.182500000000e+01 5.151265790614e-01 
3.182500000000e+01 5.151265790614e-01 
3.182500000000e+01 5.151265790614e-01 
3.182500000000e+01 5.151265790614e-01 
3.185000000000e+01 5.131641095520e-01 
3.185000000000e+01 5.131641095520e-01 
3.185000000000e+01 5.131641095520e-01 
3.185000000000e+01 5.131641095520e-01 
3.185000000000e+01 5.131641095520e-01 
3.187500000000e+01 5.112342941078e-01 
3.187500000000e+01 5.112342941078e-01 
3.187500000000e+01 5.112342941078e-01 
3.187500000000e+01 5.112342941078e-01 
3.187500000000e+01 5.112342941078e-01 
3.190000000000e+01 5.093362037054e-01 
3.190000000000e+01 5.093362037054e-01 
3.190000000000e+01 5.093362037054e-01 
3.190000000000e+01 5.093362037054e-01 
3.190000000000e+01 5.093362037054e-01 
3.192500000000e+01 5.074689462822e-01 
3.192500000000e+01 5.074689462822e-01 
3.192500000000e+01 5.074689462822e-01 
3.192500000000e+01 5.074689462822e-01 
3.192500000000e+01 5.074689462822e-01 
3.195000000000e+01 5.056316648631e-01 
3.195000000000e+01 5.056316648631e-01 
3.195000000000e+01 5.056316648631e-01 
3.195000000000e+01 5.056316648631e-01 
3.195000000000e+01 5.056316648631e-01 
3.197500000000e+01 5.038235358020e-01 
3.197500000000e+01 5.038235358020e-01 
3.197500000000e+01 5.038235358020e-01 
3.197500000000e+01 5.038235358020e-01 
3.197500000000e+01 5.038235358020e-01 
3.200000000000e+01 5.014586945139e-01 
3.200000000000e+01 5.014611752423e-01 
3.200000000000e+01 5.014624141364e-01 
3.200000000000e+01 5.014599353678e-01 
3.200000000000e+01 5.014636520494e-01 
3.282807804063e+01 4.545103285549e-01 
3.282907838292e+01 4.544635031392e-01 
3.283007872520e+01 4.544166981185e-01 
3.283107906748e+01 4.543699134776e-01 
3.283207940977e+01 4.543231492018e-01 
3.365615608126e+01 4.229410884246e-01 
3.365815676583e+01 4.228751434419e-01 
3.366015745040e+01 4.228092451253e-01 
3.366215813497e+01 4.227433934178e-01 
3.366415881953e+01 4.226775882624e-01 
3.448423412190e+01 3.993981501401e-01 
3.448723514875e+01 3.993226339619e-01 
3.449023617560e+01 3.992471836973e-01 
3.449323720245e+01 3.991717992462e-01 
3.449623822930e+01 3.990964805089e-01 
3.531231216253e+01 3.808961805940e-01 
3.531631353166e+01 3.808156294741e-01 
3.532031490080e+01 3.807351578136e-01 
3.532431626993e+01 3.806547654759e-01 
3.532831763906e+01 3.805744523247e-01 
3.614039020316e+01 3.658004383848e-01 
3.614539191458e+01 3.657172261795e-01 
3.615039362600e+01 3.656341029877e-01 
3.615539533741e+01 3.655510686435e-01 
3.616039704883e+01 3.654681229812e-01 
 TITLE = "Profiles along polylines"
 VARIABLES = "DIST" "SATURATION1" 
 ZONE T="TIME=1.797693134862e+308"
1.140390203161e+00 1.000000000000e+00 
1.145391914578e+00 1.000000000000e+00 
1.150393625996e+00 1.000000000000e+00 
1.155395337413e+00 1.000000000000e+00 
1.160397048830e+00 1.000000000000e+00 
2.102377196389e+00 1.000000000000e+00 
2.107212184092e+00 1.000000000000e+00 
2.112047171795e+00 1.000000000000e+00 
2.116882159499e+00 1.000000000000e+00 
2.121717147202e+00 1.000000000000e+00 
3.064364189616e+00 1.000000000000e+00 
3.069032453605e+00 1.000000000000e+00 
3.073700717595e+00 1.000000000000e+00 
3.078368981585e+00 1.000000000000e+00 
3.083037245574e+00 1.000000000000e+00 
4.026351182844e+00 1.000000000000e+00 
4.030852723120e+00 1.000000000000e+00 
4.035354263396e+00 1.000000000000e+00 
4.039855803671e+00 1.000000000000e+00 
4.044357343947e+00 1.000000000000e+00 
4.988338176072e+00 1.000000000000e+00 
4.992672992634e+00 1.000000000000e+00 
4.997007809196e+00 1.000000000000e+00 
5.001342625758e+00 1.000000000000e+00 
5.005677442319e+00 1.000000000000e+00 
5.950325169300e+00 1.000000000000e+00 
5.954493262147e+00 1.000000000000e+00 
5.958661354995e+00 1.000000000000e+00 
5.962829447843e+00 1.000000000000e+00 
5.966997540691e+00 1.000000000000e+00 
6.912312162527e+00 1.000000000000e+00 
6.916313531661e+00 1.000000000000e+00 
6.920314900795e+00 1.000000000000e+00 
6.924316269928e+00 1.000000000000e+00 
6.928317639062e+00 1.000000000000e+00 
7.874299155754e+00 1.000000000000e+00 
7.878133801174e+00 1.000000000000e+00 
7.881968446594e+00 1.000000000000e+00 
7.885803092014e+00 1.000000000000e+00 
7.889637737434e+00 1.000000000000e+00 
8.836286148981e+00 1.000000000000e+00 
8.839954070687e+00 1.000000000000e+00 
8.843621992393e+00 1.000000000000e+00 
8.847289914099e+00 1.000000000000e+00 
8.850957835805e+00 1.000000000000e+00 
9.798273142206e+00 1.000000000000e+00 
9.801774340198e+00 1.000000000000e+00 
9.805275538190e+00 1.000000000000e+00 
9.808776736182e+00 1.000000000000e+00 
9.812277934175e+00 1.000000000000e+00 
1.076026013543e+01 1.000000000000e+00 
1.076359460971e+01 1.000000000000e+00 
1.076692908399e+01 1.000000000000e+00 
1.077026355827e+01 1.000000000000e+00 
1.077359803254e+01 1.000000000000e+00 
1.172224712866e+01 1.000000000000e+00 
1.172541487922e+01 1.000000000000e+00 
1.172858262978e+01 1.000000000000e+00 
1.173175038035e+01 1.000000000000e+00 
1.173491813091e+01 1.000000000000e+00 
1.268423412188e+01 1.000000000000e+00 
1.268723514873e+01 1.000000000000e+00 
1.269023617558e+01 1.000000000000e+00 
1.269323720243e+01 1.000000000000e+00 
1.269623822928e+01 1.000000000000e+00 
1.364622111510e+01 1.000000000000e+00 
1.364905541824e+01 1.000000000000e+00 
1.365188972138e+01 1.000000000000e+00 
1.365472402451e+01 1.000000000000e+00 
1.365755832765e+01 1.000000000000e+00 
1.460820810833e+01 1.000000000000e+00 
1.461087568775e+01 1.000000000000e+00 
1.461354326717e+01 1.000000000000e+00 
1.461621084660e+01 1.000000000000e+00 
1.461887842602e+01 1.000000000000e+00 
1.557019510155e+01 1.000000000000e+00 
1.557269595726e+01 1.000000000000e+00 
1.557519681297e+01 1.000000000000e+00 
1.557769766868e+01 1.000000000000e+00 
1.558019852439e+01 1.000000000000e+00 
1.653218209478e+01 1.000000000000e+00 
1.653451622678e+01 1.000000000000e+00 
1.653685035877e+01 1.000000000000e+00 
1.653918449077e+01 1.000000000000e+00 
1.654151862276e+01 1.000000000000e+00 
1.749416908801e+01 1.000000000000e+00 
1.749633649629e+01 1.000000000000e+00 
1.749850390457e+01 1.000000000000e+00 
1.750067131286e+01 1.000000000000e+00 
1.750283872114e+01 1.000000000000e+00 
1.845615608124e+01 1.000000000000e+00 
1.845815676581e+01 1.000000000000e+00 
1.846015745038e+01 1.000000000000e+00 
1.846215813494e+01 1.000000000000e+00 
1.846415881951e+01 1.000000000000e+00 
1.941814307447e+01 1.000000000000e+00 
1.941997703533e+01 1.000000000000e+00 
1.942181099618e+01 1.000000000000e+00 
1.942364495703e+01 1.000000000000e+00 
1.942547891788e+01 1.000000000000e+00 
2.038013006770e+01 1.000000000000e+00 
2.038179730484e+01 1.000000000000e+00 
2.038346454198e+01 1.000000000000e+00 
2.038513177912e+01 1.000000000000e+00 
2.038679901626e+01 1.000000000000e+00 
2.134211706093e+01 1.000000000000e+00 
2.134361757436e+01 1.000000000000e+00 
2.134511808778e+01 1.000000000000e+00 
2.134661860121e+01 1.000000000000e+00 
2.134811911463e+01 1.000000000000e+00 
2.230410405416e+01 1.000000000000e+00 
2.230543784387e+01 1.000000000000e+00 
2.230677163358e+01 1.000000000000e+00 
2.230810542330e+01 1.000000000000e+00 
2.230943921301e+01 1.000000000000e+00 
2.326609104739e+01 1.000000000000e+00 
2.326725811339e+01 1.000000000000e+00 
2.326842517939e+01 1.000000000000e+00 
2.326959224538e+01 1.000000000000e+00 
2.327075931138e+01 1.000000000000e+00 
2.422807804062e+01 1.000000000000e+00 
2.422907838290e+01 1.000000000000e+00 
2.423007872519e+01 1.000000000000e+00 
2.423107906747e+01 1.000000000000e+00 
2.423207940976e+01 1.000000000000e+00 
2.519006503385e+01 1.000000000000e+00 
2.519089865242e+01 1.000000000000e+00 
2.519173227099e+01 1.000000000000e+00 
2.519256588956e+01 1.000000000000e+00 
2.519339950813e+01 1.000000000000e+00 
2.615205202708e+01 1.000000000000e+00 
2.615271892194e+01 1.000000000000e+00 
2.615338581679e+01 1.000000000000e+00 
2.615405271165e+01 1.000000000000e+00 
2.615471960650e+01 1.000000000000e+00 
2.711403902031e+01 1.000000000000e+00 
2.711453919145e+01 1.000000000000e+00 
2.711503936259e+01 1.000000000000e+00 
2.711553953374e+01 1.000000000000e+00 
2.711603970488e+01 1.000000000000e+00 
2.807602601354e+01 1.000000000000e+00 
2.807635946097e+01 1.000000000000e+00 
2.807669290840e+01 1.000000000000e+00 
2.807702635582e+01 1.000000000000e+00 
2.807735980325e+01 1.000000000000e+00 
2.903801300677e+01 1.000000000000e+00 
2.903817973048e+01 1.000000000000e+00 
2.903834645420e+01 1.000000000000e+00 
2.903851317791e+01 1.000000000000e+00 
2.903867990163e+01 1.000000000000e+00 
3.000000000000e+01 1.000000000000e+00 
3.000000000000e+01 1.000000000000e+00 
3.000000000000e+01 1.000000000000e+00 
3.000000000000e+01 1.000000000000e+00 
3.000000000000e+01 1.000000000000e+00 
3.002500000000e+01 1.000000000000e+00 
3.002500000000e+01 1.000000000000e+00 
3.002500000000e+01 1.000000000000e+00 
3.002500000000e+01 1.000000000000e+00 
3.002500000000e+01 1.000000000000e+00 
3.005000000000e+01 1.000000000000e+00 
3.005000000000e+01 1.000000000000e+00 
3.005000000000e+01 1.000000000000e+00 
3.005000000000e+01 1.000000000000e+00 
3.005000000000e+01 1.000000000000e+00 
3.007500000000e+01 1.000000000000e+00 
3.007500000000e+01 1.000000000000e+00 
3.007500000000e+01 1.000000000000e+00 
3.007500000000e+01 1.000000000000e+00 
3.007500000000e+01 1.000000000000e+00 
3.010000000000e+01 1.000000000000e+00 
3.010000000000e+01 1.000000000000e+00 
3.010000000000e+01 1.000000000000e+00 
3.010000000000e+01 1.000000000000e+00 
3.010000000000e+01 1.000000000000e+00 
3.012500000000e+01 1.000000000000e+00 
3.012500000000e+01 1.000000000000e+00 
3.012500000000e+01 1.000000000000e+00 
3.012500000000e+01 1.000000000000e+00 
3.012500000000e+01 1.000000000000e+00 
3.015000000000e+01 1.000000000000e+00 
3.015000000000e+01 1.000000000000e+00 
3.015000000000e+01 1.000000000000e+00 