 TITLE = "Profiles along polylines"
 VARIABLES = "DIST" "SATURATION1" 
 ZONE T="TIME=0.000000000000e+00"
3.901334905541e-01 1.000000000000e+00 
3.951352019715e-01 1.000000000000e+00 
4.001369133888e-01 1.000000000000e+00 
4.051386248062e-01 1.000000000000e+00 
4.101403362235e-01 1.000000000000e+00 
1.377129040869e+00 1.000000000000e+00 
1.381964028572e+00 1.000000000000e+00 
1.386799016276e+00 1.000000000000e+00 
1.391634003979e+00 1.000000000000e+00 
1.396468991683e+00 1.000000000000e+00 
2.364124591183e+00 1.000000000000e+00 
2.368792855172e+00 1.000000000000e+00 
2.373461119162e+00 1.000000000000e+00 
2.378129383152e+00 1.000000000000e+00 
2.382797647141e+00 1.000000000000e+00 
3.351120141498e+00 1.000000000000e+00 
3.355621681774e+00 1.000000000000e+00 
3.360123222050e+00 1.000000000000e+00 
3.364624762325e+00 1.000000000000e+00 
3.369126302601e+00 1.000000000000e+00 
4.338115691813e+00 1.000000000000e+00 
4.342450508375e+00 1.000000000000e+00 
4.346785324937e+00 1.000000000000e+00 
4.351120141498e+00 1.000000000000e+00 
4.355454958060e+00 1.000000000000e+00 
5.325111242127e+00 1.000000000000e+00 
5.329279334975e+00 1.000000000000e+00 
5.333447427823e+00 1.000000000000e+00 
5.337615520671e+00 1.000000000000e+00 
5.341783613519e+00 1.000000000000e+00 
6.312106792441e+00 1.000000000000e+00 
6.316108161575e+00 1.000000000000e+00 
6.320109530709e+00 1.000000000000e+00 
6.324110899843e+00 1.000000000000e+00 
6.328112268977e+00 1.000000000000e+00 
7.299102342755e+00 1.000000000000e+00 
7.302936988175e+00 1.000000000000e+00 
7.306771633595e+00 1.000000000000e+00 
7.310606279015e+00 1.000000000000e+00 
7.314440924435e+00 1.000000000000e+00 
8.286097893069e+00 1.000000000000e+00 
8.289765814775e+00 1.000000000000e+00 
8.293433736481e+00 1.000000000000e+00 
8.297101658187e+00 1.000000000000e+00 
8.300769579893e+00 1.000000000000e+00 
9.273093443381e+00 1.000000000000e+00 
9.276594641373e+00 1.000000000000e+00 
9.280095839365e+00 1.000000000000e+00 
9.283597037357e+00 1.000000000000e+00 
9.287098235349e+00 1.000000000000e+00 
1.026008899369e+01 1.000000000000e+00 
1.026342346797e+01 1.000000000000e+00 
1.026675794225e+01 1.000000000000e+00 
1.027009241653e+01 1.000000000000e+00 
1.027342689080e+01 1.000000000000e+00 
1.124708454400e+01 1.000000000000e+00 
1.125025229457e+01 1.000000000000e+00 
1.125342004513e+01 1.000000000000e+00 
1.125658779570e+01 1.000000000000e+00 
1.125975554626e+01 1.000000000000e+00 
1.223408009431e+01 1.000000000000e+00 
1.223708112116e+01 1.000000000000e+00 
1.224008214801e+01 1.000000000000e+00 
1.224308317487e+01 1.000000000000e+00 
1.224608420172e+01 1.000000000000e+00 
1.322107564463e+01 1.000000000000e+00 
1.322390994776e+01 1.000000000000e+00 
1.322674425090e+01 1.000000000000e+00 
1.322957855403e+01 1.000000000000e+00 
1.323241285717e+01 1.000000000000e+00 
1.420807119494e+01 1.000000000000e+00 
1.421073877436e+01 1.000000000000e+00 
1.421340635378e+01 1.000000000000e+00 
1.421607393320e+01 1.000000000000e+00 
1.421874151263e+01 1.000000000000e+00 
1.519506674525e+01 1.000000000000e+00 
1.519756760096e+01 1.000000000000e+00 
1.520006845667e+01 1.000000000000e+00 
1.520256931237e+01 1.000000000000e+00 
1.520507016808e+01 1.000000000000e+00 
1.618206229556e+01 1.000000000000e+00 
1.618439642756e+01 1.000000000000e+00 
1.618673055955e+01 1.000000000000e+00 
1.618906469155e+01 1.000000000000e+00 
1.619139882354e+01 1.000000000000e+00 
1.716905784588e+01 1.000000000000e+00 
1.717122525416e+01 1.000000000000e+00 
1.717339266244e+01 1.000000000000e+00 
1.717556007072e+01 1.000000000000e+00 
1.717772747900e+01 1.000000000000e+00 
1.815605339620e+01 1.000000000000e+00 
1.815805408077e+01 1.000000000000e+00 
1.816005476533e+01 1.000000000000e+00 
1.816205544990e+01 1.000000000000e+00 
1.816405613447e+01 1.000000000000e+00 
1.914304894651e+01 1.000000000000e+00 
1.914488290737e+01 1.000000000000e+00 
1.914671686822e+01 1.000000000000e+00 
1.914855082907e+01 1.000000000000e+00 
1.915038478993e+01 1.000000000000e+00 
2.013004449683e+01 1.000000000000e+00 
2.013171173397e+01 1.000000000000e+00 
2.013337897111e+01 1.000000000000e+00 
2.013504620825e+01 1.000000000000e+00 
2.013671344539e+01 1.000000000000e+00 
2.111704004715e+01 1.000000000000e+00 
2.111854056057e+01 1.000000000000e+00 
2.112004107400e+01 1.000000000000e+00 
2.112154158742e+01 1.000000000000e+00 
2.112304210085e+01 1.000000000000e+00 
2.210403559747e+01 1.000000000000e+00 
2.210536938718e+01 1.000000000000e+00 
2.210670317689e+01 1.000000000000e+00 
2.210803696660e+01 1.000000000000e+00 
2.210937075631e+01 1.000000000000e+00 
2.309103114778e+01 1.000000000000e+00 
2.309219821378e+01 1.000000000000e+00 
2.309336527978e+01 1.000000000000e+00 
2.309453234577e+01 1.000000000000e+00 
2.309569941177e+01 1.000000000000e+00 
2.407802669810e+01 1.000000000000e+00 
2.407902704038e+01 1.000000000000e+00 
2.408002738267e+01 1.000000000000e+00 
2.408102772495e+01 1.000000000000e+00 
2.408202806723e+01 1.000000000000e+00 
2.506502224842e+01 1.000000000000e+00 
2.506585586699e+01 1.000000000000e+00 
2.506668948555e+01 1.000000000000e+00 
2.506752310412e+01 1.000000000000e+00 
2.506835672269e+01 1.000000000000e+00 
2.605201779873e+01 1.000000000000e+00 
2.605268469359e+01 1.000000000000e+00 
2.605335158844e+01 1.000000000000e+00 
2.605401848330e+01 1.000000000000e+00 
2.605468537816e+01 1.000000000000e+00 
2.703901334905e+01 1.000000000000e+00 
2.703951352019e+01 1.000000000000e+00 
2.704001369133e+01 1.000000000000e+00 
2.704051386247e+01 1.000000000000e+00 
2.704101403362e+01 1.000000000000e+00 
2.802600889937e+01 1.000000000000e+00 
2.802634234679e+01 1.000000000000e+00 
2.802667579422e+01 1.000000000000e+00 
2.802700924165e+01 1.000000000000e+00 
2.802734268908e+01 1.000000000000e+00 
2.901300444968e+01 1.000000000000e+00 
2.901317117340e+01 1.000000000000e+00 
2.901333789711e+01 1.000000000000e+00 
2.901350462082e+01 1.000000000000e+00 
2.901367134454e+01 1.000000000000e+00 
3.000000000000e+01 1.000000000000e+00 
3.000000000000e+01 1.000000000000e+00 
3.000000000000e+01 1.000000000000e+00 
3.000000000000e+01 1.000000000000e+00 
3.000000000000e+01 1.000000000000e+00 
3.002500000000e+01 9.876207709446e-01 
3.002500000000e+01 9.876207709446e-01 
3.002500000000e+01 9.876207709446e-01 
3.002500000000e+01 9.876207709446e-01 
3.002500000000e+01 9.876207709446e-01 
3.005000000000e+01 9.697756439369e-01 
3.005000000000e+01 9.697756439369e-01 
3.005000000000e+01 9.697756439369e-01 
3.005000000000e+01 9.697756439369e-01 
3.005000000000e+01 9.697756439369e-01 
3.007500000000e+01 9.507134089444e-01 
3.007500000000e+01 9.507134089444e-01 
3.007500000000e+01 9.507134089444e-01 
3.007500000000e+01 9.507134089444e-01 
3.007500000000e+01 9.507134089444e-01 
3.010000000000e+01 9.315621650298e-01 
3.010000000000e+01 9.315621650298e-01 
3.010000000000e+01 9.315621650298e-01 
3.010000000000e+01 9.315621650298e-01 
3.010000000000e+01 9.315621650298e-01 
3.012500000000e+01 9.128758324042e-01 
3.012500000000e+01 9.128758324042e-01 
3.012500000000e+01 9.128758324042e-01 
3.012500000000e+01 9.128758324042e-01 
3.012500000000e+01 9.128758324042e-01 
3.015000000000e+01 8.949248043380e-01 
3.015000000000e+01 8.949248043380e-01 
3.015000000000e+01 8.949248043380e-01 
3.015000000000e+01 8.949248043380e-01 
3.015000000000e+01 8.949248043380e-01 
3.017500000000e+01 8.778290027968e-01 
3.017500000000e+01 8.778290027968e-01 
3.017500000000e+01 8.778290027968e-01 
3.017500000000e+01 8.778290027968e-01 
3.017500000000e+01 8.778290027968e-01 
3.020000000000e+01 8.616255702900e-01 
3.020000000000e+01 8.616255702900e-01 
3.020000000000e+01 8.616255702900e-01 
3.020000000000e+01 8.616255702900e-01 
3.020000000000e+01 8.616255702900e-01 
3.022500000000e+01 8.463059583920e-01 
3.022500000000e+01 8.463059583920e-01 
3.022500000000e+01 8.463059583920e-01 
3.022500000000e+01 8.463059583920e-01 
3.022500000000e+01 8.463059583920e-01 
3.025000000000e+01 8.318370344398e-01 
3.025000000000e+01 8.318370344398e-01 
3.025000000000e+01 8.318370344398e-01 
3.025000000000e+01 8.318370344398e-01 
3.025000000000e+01 8.318370344398e-01 
3.027500000000e+01 8.181733156316e-01 
3.027500000000e+01 8.181733156316e-01 
3.027500000000e+01 8.181733156316e-01 
3.027500000000e+01 8.181733156316e-01 
3.027500000000e+01 8.181733156316e-01 
3.030000000000e+01 8.052640970350e-01 
3.030000000000e+01 8.052640970350e-01 
3.030000000000e+01 8.052640970350e-01 
3.030000000000e+01 8.052640970350e-01 
3.030000000000e+01 8.052640970350e-01 
3.032500000000e+01 7.930575753856e-01 
3.032500000000e+01 7.930575753856e-01 
3.032500000000e+01 7.930575753856e-01 
3.032500000000e+01 7.930575753856e-01 
3.032500000000e+01 7.930575753856e-01 
3.035000000000e+01 7.815031815402e-01 
3.035000000000e+01 7.815031815402e-01 
3.035000000000e+01 7.815031815402e-01 
3.035000000000e+01 7.815031815402e-01 
3.035000000000e+01 7.815031815402e-01 
3.037500000000e+01 7.705528376764e-01 
3.037500000000e+01 7.705528376764e-01 
3.037500000000e+01 7.705528376764e-01 
3.037500000000e+01 7.705528376764e-01 
3.037500000000e+01 7.705528376764e-01 
3.040000000000e+01 7.601615689674e-01 
3.040000000000e+01 7.601615689674e-01 
3.040000000000e+01 7.601615689674e-01 
3.040000000000e+01 7.601615689674e-01 
3.040000000000e+01 7.601615689674e-01 
3.042500000000e+01 7.502877306002e-01 
3.042500000000e+01 7.502877306002e-01 
3.042500000000e+01 7.502877306002e-01 
3.042500000000e+01 7.502877306002e-01 
3.042500000000e+01 7.502877306002e-01 
3.045000000000e+01 7.408930096824e-01 
3.045000000000e+01 7.408930096824e-01 
3.045000000000e+01 7.408930096824e-01 
3.045000000000e+01 7.408930096824e-01 
3.045000000000e+01 7.408930096824e-01 
3.047500000000e+01 7.319422999608e-01 
3.047500000000e+01 7.319422999608e-01 
3.047500000000e+01 7.319422999608e-01 
3.047500000000e+01 7.319422999608e-01 
3.047500000000e+01 7.319422999608e-01 
3.050000000000e+01 7.234035093991e-01 
3.050000000000e+01 7.234035093991e-01 
3.050000000000e+01 7.234035093991e-01 
3.050000000000e+01 7.234035093991e-01 
3.050000000000e+01 7.234035093991e-01 
3.052500000000e+01 7.152473371957e-01 
3.052500000000e+01 7.152473371957e-01 
3.052500000000e+01 7.152473371957e-01 
3.052500000000e+01 7.152473371957e-01 
3.052500000000e+01 7.152473371957e-01 
3.055000000000e+01 7.074470422112e-01 
3.055000000000e+01 7.074470422112e-01 
3.055000000000e+01 7.074470422112e-01 
3.055000000000e+01 7.074470422112e-01 
3.055000000000e+01 7.074470422112e-01 
3.057500000000e+01 6.999782156504e-01 
3.057500000000e+01 6.999782156504e-01 
3.057500000000e+01 6.999782156504e-01 
3.057500000000e+01 6.999782156504e-01 
3.057500000000e+01 6.999782156504e-01 
3.060000000000e+01 6.928185651596e-01 
3.060000000000e+01 6.928185651596e-01 
3.060000000000e+01 6.928185651596e-01 
3.060000000000e+01 6.928185651596e-01 
3.060000000000e+01 6.928185651596e-01 
3.062500000000e+01 6.859477139679e-01 
3.062500000000e+01 6.859477139679e-01 
3.062500000000e+01 6.859477139679e-01 
3.062500000000e+01 6.859477139679e-01 
3.062500000000e+01 6.859477139679e-01 
3.065000000000e+01 6.793470165436e-01 
3.065000000000e+01 6.793470165436e-01 
3.065000000000e+01 6.793470165436e-01 
3.065000000000e+01 6.793470165436e-01 
3.065000000000e+01 6.793470165436e-01 
3.067500000000e+01 6.729993909360e-01 
3.067500000000e+01 6.729993909360e-01 
3.067500000000e+01 6.729993909360e-01 
3.067500000000e+01 6.729993909360e-01 
3.067500000000e+01 6.729993909360e-01 
3.070000000000e+01 6.668891672206e-01 
3.070000000000e+01 6.668891672206e-01 
3.070000000000e+01 6.668891672206e-01 
3.070000000000e+01 6.668891672206e-01 
3.070000000000e+01 6.668891672206e-01 
3.072500000000e+01 6.610019510587e-01 
3.072500000000e+01 6.610019510587e-01 
3.072500000000e+01 6.610019510587e-01 
3.072500000000e+01 6.610019510587e-01 
3.072500000000e+01 6.610019510587e-01 
3.075000000000e+01 6.553245011865e-01 
3.075000000000e+01 6.553245011865e-01 
3.075000000000e+01 6.553245011865e-01 
3.075000000000e+01 6.553245011865e-01 
3.075000000000e+01 6.553245011865e-01 
3.077500000000e+01 6.498446195878e-01 
3.077500000000e+01 6.498446195878e-01 
3.077500000000e+01 6.498446195878e-01 
3.077500000000e+01 6.498446195878e-01 
3.077500000000e+01 6.498446195878e-01 
3.080000000000e+01 6.445510531188e-01 
3.080000000000e+01 6.445510531188e-01 
3.080000000000e+01 6.445510531188e-01 
3.080000000000e+01 6.445510531188e-01 
3.080000000000e+01 6.445510531188e-01 
3.082500000000e+01 6.394334054150e-01 
3.082500000000e+01 6.394334054150e-01 
3.082500000000e+01 6.394334054150e-01 
3.082500000000e+01 6.394334054150e-01 
3.082500000000e+01 6.394334054150e-01 
3.085000000000e+01 6.344820579917e-01 
3.085000000000e+01 6.344820579917e-01 
3.085000000000e+01 6.344820579917e-01 
3.085000000000e+01 6.344820579917e-01 
3.085000000000e+01 6.344820579917e-01 
3.087500000000e+01 6.296880995462e-01 
3.087500000000e+01 6.296880995462e-01 
3.087500000000e+01 6.296880995462e-01 
3.087500000000e+01 6.296880995462e-01 
3.087500000000e+01 6.296880995462e-01 
3.090000000000e+01 6.250432625624e-01 
3.090000000000e+01 6.250432625624e-01 
3.090000000000e+01 6.250432625624e-01 
3.090000000000e+01 6.250432625624e-01 
3.090000000000e+01 6.250432625624e-01 
3.092500000000e+01 6.205398664126e-01 
3.092500000000e+01 6.205398664126e-01 
3.092500000000e+01 6.205398664126e-01 
3.092500000000e+01 6.205398664126e-01 
3.092500000000e+01 6.205398664126e-01 
3.095000000000e+01 6.161707662369e-01 
3.095000000000e+01 6.161707662369e-01 
3.095000000000e+01 6.161707662369e-01 
3.095000000000e+01 6.161707662369e-01 
3.095000000000e+01 6.161707662369e-01 
3.097500000000e+01 6.119293069613e-01 
3.097500000000e+01 6.119293069613e-01 
3.097500000000e+01 6.119293069613e-01 
3.097500000000e+01 6.119293069613e-01 
3.097500000000e+01 6.119293069613e-01 
3.100000000000e+01 6.078092818871e-01 
3.100000000000e+01 6.078092818871e-01 
3.100000000000e+01 6.078092818871e-01 
3.100000000000e+01 6.078092818871e-01 
3.100000000000e+01 6.078092818871e-01 
3.102500000000e+01 6.038048953494e-01 
3.102500000000e+01 6.038048953494e-01 
3.102500000000e+01 6.038048953494e-01 
3.102500000000e+01 6.038048953494e-01 
3.102500000000e+01 6.038048953494e-01 
3.105000000000e+01 5.999107290013e-01 
3.105000000000e+01 5.999107290013e-01 
3.105000000000e+01 5.999107290013e-01 
3.105000000000e+01 5.999107290013e-01 
3.105000000000e+01 5.999107290013e-01 
3.107500000000e+01 5.961217113309e-01 
3.107500000000e+01 5.961217113309e-01 
3.107500000000e+01 5.961217113309e-01 
3.107500000000e+01 5.961217113309e-01 
3.107500000000e+01 5.961217113309e-01 
3.110000000000e+01 5.924330900627e-01 
3.110000000000e+01 5.924330900627e-01 
3.110000000000e+01 5.924330900627e-01 
3.110000000000e+01 5.924330900627e-01 
3.110000000000e+01 5.924330900627e-01 
3.112500000000e+01 5.888404071392e-01 
3.112500000000e+01 5.888404071392e-01 
3.112500000000e+01 5.888404071392e-01 
3.112500000000e+01 5.888404071392e-01 
3.112500000000e+01 5.888404071392e-01 
3.115000000000e+01 5.853394760078e-01 
3.115000000000e+01 5.853394760078e-01 
3.115000000000e+01 5.853394760078e-01 
3.115000000000e+01 5.853394760078e-01 
3.115000000000e+01 5.853394760078e-01 
3.117500000000e+01 5.819263609758e-01 
3.117500000000e+01 5.819263609758e-01 
3.117500000000e+01 5.819263609758e-01 
3.117500000000e+01 5.819263609758e-01 
3.117500000000e+01 5.819263609758e-01 
3.120000000000e+01 5.785973584173e-01 
3.120000000000e+01 5.785973584173e-01 
3.120000000000e+01 5.785973584173e-01 
3.120000000000e+01 5.785973584173e-01 
3.120000000000e+01 5.785973584173e-01 
3.122500000000e+01 5.753489796460e-01 
3.122500000000e+01 5.753489796460e-01 
3.122500000000e+01 5.753489796460e-01 
3.122500000000e+01 5.753489796460e-01 
3.122500000000e+01 5.753489796460e-01 
3.125000000000e+01 5.721779352840e-01 
3.125000000000e+01 5.721779352840e-01 
3.125000000000e+01 5.721779352840e-01 
3.125000000000e+01 5.721779352840e-01 
3.125000000000e+01 5.721779352840e-01 
3.127500000000e+01 5.690811209785e-01 
3.127500000000e+01 5.690811209785e-01 
3.127500000000e+01 5.690811209785e-01 
3.127500000000e+01 5.690811209785e-01 
3.127500000000e+01 5.690811209785e-01 
3.130000000000e+01 5.660556043336e-01 
3.130000000000e+01 5.660556043336e-01 
3.130000000000e+01 5.660556043336e-01 
3.130000000000e+01 5.660556043336e-01 
3.130000000000e+01 5.660556043336e-01 
3.132500000000e+01 5.630986129391e-01 
3.132500000000e+01 5.630986129391e-01 
3.132500000000e+01 5.630986129391e-01 
3.132500000000e+01 5.630986129391e-01 
3.132500000000e+01 5.630986129391e-01 
3.135000000000e+01 5.602075233904e-01 
3.135000000000e+01 5.602075233904e-01 
3.135000000000e+01 5.602075233904e-01 
3.135000000000e+01 5.602075233904e-01 
3.135000000000e+01 5.602075233904e-01 
3.137500000000e+01 5.573798512060e-01 
3.137500000000e+01 5.573798512060e-01 
3.137500000000e+01 5.573798512060e-01 
3.137500000000e+01 5.573798512060e-01 
3.137500000000e+01 5.573798512060e-01 
3.140000000000e+01 5.546132415581e-01 
3.140000000000e+01 5.546132415581e-01 
3.140000000000e+01 5.546132415581e-01 
3.140000000000e+01 5.546132415581e-01 
3.140000000000e+01 5.546132415581e-01 
3.142500000000e+01 5.519054607414e-01 
3.142500000000e+01 5.519054607414e-01 
3.142500000000e+01 5.519054607414e-01 
3.142500000000e+01 5.519054607414e-01 
3.142500000000e+01 5.519054607414e-01 
3.145000000000e+01 5.492543883110e-01 
3.145000000000e+01 5.492543883110e-01 
3.145000000000e+01 5.492543883110e-01 
3.145000000000e+01 5.492543883110e-01 
3.145000000000e+01 5.492543883110e-01 
3.147500000000e+01 5.466580098318e-01 
3.147500000000e+01 5.466580098318e-01 
3.147500000000e+01 5.466580098318e-01 
3.147500000000e+01 5.466580098318e-01 
3.147500000000e+01 5.466580098318e-01 
3.150000000000e+01 5.441144101810e-01 
3.150000000000e+01 5.441144101810e-01 
3.150000000000e+01 5.441144101810e-01 
3.150000000000e+01 5.441144101810e-01 
3.150000000000e+01 5.441144101810e-01 
3.152500000000e+01 5.416217673588e-01 
3.152500000000e+01 5.416217673588e-01 
3.152500000000e+01 5.416217673588e-01 
3.152500000000e+01 5.416217673588e-01 
3.152500000000e+01 5.416217673588e-01 
3.155000000000e+01 5.391783467591e-01 
3.155000000000e+01 5.391783467591e-01 
3.155000000000e+01 5.391783467591e-01 
3.155000000000e+01 5.391783467591e-01 
3.155000000000e+01 5.391783467591e-01 
3.157500000000e+01 5.367824958643e-01 
3.157500000000e+01 5.367824958643e-01 
3.157500000000e+01 5.367824958643e-01 
3.157500000000e+01 5.367824958643e-01 
3.157500000000e+01 5.367824958643e-01 
3.160000000000e+01 5.344326393247e-01 
3.160000000000e+01 5.344326393247e-01 
3.160000000000e+01 5.344326393247e-01 
3.160000000000e+01 5.344326393247e-01 
3.160000000000e+01 5.344326393247e-01 
3.162500000000e+01 5.321272743928e-01 
3.162500000000e+01 5.321272743928e-01 
3.162500000000e+01 5.321272743928e-01 
3.162500000000e+01 5.321272743928e-01 
3.162500000000e+01 5.321272743928e-01 
3.165000000000e+01 5.298649666811e-01 
3.165000000000e+01 5.298649666811e-01 
3.165000000000e+01 5.298649666811e-01 
3.165000000000e+01 5.298649666811e-01 
3.165000000000e+01 5.298649666811e-01 
3.167500000000e+01 5.276443462180e-01 
3.167500000000e+01 5.276443462180e-01 
3.167500000000e+01 5.276443462180e-01 
3.167500000000e+01 5.276443462180e-01 
3.167500000000e+01 5.276443462180e-01 
3.170000000000e+01 5.254641037767e-01 
3.170000000000e+01 5.254641037767e-01 
3.170000000000e+01 5.254641037767e-01 
3.170000000000e+01 5.254641037767e-01 
3.170000000000e+01 5.254641037767e-01 
3.172500000000e+01 5.233229874560e-01 
3.172500000000e+01 5.233229874560e-01 
3.172500000000e+01 5.233229874560e-01 
3.172500000000e+01 5.233229874560e-01 
3.172500000000e+01 5.233229874560e-01 
3.175000000000e+01 5.212197994921e-01 
3.175000000000e+01 5.212197994921e-01 
3.175000000000e+01 5.212197994921e-01 
3.175000000000e+01 5.212197994921e-01 
3.175000000000e+01 5.212197994921e-01 
3.177500000000e+01 5.191533932842e-01 
3.177500000000e+01 5.191533932842e-01 
3.177500000000e+01 5.191533932842e-01 
3.177500000000e+01 5.191533932842e-01 
3.177500000000e+01 5.191533932842e-01 
3.180000000000e+01 5.171226706164e-01 
3.180000000000e+01 5.171226706164e-01 
3.180000000000e+01 5.171226706164e-01 
3.180000000000e+01 5.171226706164e-01 
3.180000000000e+01 5.171226706164e-01 
3.182500000000e+01 5.151265790614e-01 
3.182500000000e+01 5.151265790614e-01 
3.182500000000e+01 5.151265790614e-01 
3.182500000000e+01 5.151265790614e-01 
3.182500000000e+01 5.151265790614e-01 
3.185000000000e+01 5.131641095520e-01 
3.185000000000e+01 5.131641095520e-01 
3.185000000000e+01 5.131641095520e-01 
3.185000000000e+01 5.131641095520e-01 
3.185000000000e+01 5.131641095520e-01 
3.187500000000e+01 5.112342941078e-01 
3.187500000000e+01 5.112342941078e-01 
3.187500000000e+01 5.112342941078e-01 
3.187500000000e+01 5.112342941078e-01 
3.187500000000e+01 5.112342941078e-01 
3.190000000000e+01 5.093362037054e-01 
3.190000000000e+01 5.093362037054e-01 
3.190000000000e+01 5.093362037054e-01 
3.190000000000e+01 5.093362037054e-01 
3.190000000000e+01 5.093362037054e-01 
3.192500000000e+01 5.074689462822e-01 
3.192500000000e+01 5.074689462822e-01 
3.192500000000e+01 5.074689462822e-01 
3.192500000000e+01 5.074689462822e-01 
3.192500000000e+01 5.074689462822e-01 
3.195000000000e+01 5.056316648631e-01 
3.195000000000e+01 5.056316648631e-01 
3.195000000000e+01 5.056316648631e-01 
3.195000000000e+01 5.056316648631e-01 
3.195000000000e+01 5.056316648631e-01 
3.197500000000e+01 5.038235358020e-01 
3.197500000000e+01 5.038235358020e-01 
3.197500000000e+01 5.038235358020e-01 
3.197500000000e+01 5.038235358020e-01 
3.197500000000e+01 5.038235358020e-01 
3.200000000000e+01 5.016333719368e-01 
3.200000000000e+01 5.016355379126e-01 
3.200000000000e+01 5.016366192152e-01 
3.200000000000e+01 5.016344554861e-01 
3.200000000000e+01 5.016376993930e-01 
3.267802669811e+01 4.617740367060e-01 
3.267902704039e+01 4.617239736864e-01 
3.268002738268e+01 4.616739334848e-01 
3.268102772496e+01 4.616239160838e-01 
3.268202806724e+01 4.615739214659e-01 
3.335605339622e+01 4.333963992478e-01 
3.335805408079e+01 4.333227462213e-01 
3.336005476536e+01 4.332491496779e-01 
3.336205544992e+01 4.331756095429e-01 
3.336405613449e+01 4.331021257417e-01 
3.403408009433e+01 4.115346332280e-01 
3.403708112118e+01 4.114479585028e-01 
3.404008214803e+01 4.113613675370e-01 
3.404308317488e+01 4.112748601900e-01 
3.404608420173e+01 4.111884363216e-01 
3.471210679244e+01 3.939652233030e-01 
3.471610816158e+01 3.938709884281e-01 
3.472010953071e+01 3.937768579955e-01 
3.472411089984e+01 3.936828318037e-01 
3.472811226898e+01 3.935889096518e-01 
3.539013349055e+01 3.793964627682e-01 
3.539513520197e+01 3.792977265513e-01 
3.540013691339e+01 3.791991102898e-01 
3.540513862481e+01 3.791006137297e-01 
3.541014033622e+01 3.790022366177e-01 
 TITLE = "Profiles along polylines"
 VARIABLES = "DIST" "SATURATION1" 
 ZONE T="TIME=1.797693134862e+308"
3.901334905541e-01 1.000000000000e+00 
3.951352019715e-01 1.000000000000e+00 
4.001369133888e-01 1.000000000000e+00 
4.051386248062e-01 1.000000000000e+00 
4.101403362235e-01 1.000000000000e+00 
1.377129040869e+00 1.000000000000e+00 
1.381964028572e+00 1.000000000000e+00 
1.386799016276e+00 1.000000000000e+00 
1.391634003979e+00 1.000000000000e+00 
1.396468991683e+00 1.000000000000e+00 
2.364124591183e+00 1.000000000000e+00 
2.368792855172e+00 1.000000000000e+00 
2.373461119162e+00 1.000000000000e+00 
2.378129383152e+00 1.000000000000e+00 
2.382797647141e+00 1.000000000000e+00 
3.351120141498e+00 1.000000000000e+00 
3.355621681774e+00 1.000000000000e+00 
3.360123222050e+00 1.000000000000e+00 
3.364624762325e+00 1.000000000000e+00 
3.369126302601e+00 1.000000000000e+00 
4.338115691813e+00 1.000000000000e+00 
4.342450508375e+00 1.000000000000e+00 
4.346785324937e+00 1.000000000000e+00 
4.351120141498e+00 1.000000000000e+00 
4.355454958060e+00 1.000000000000e+00 
5.325111242127e+00 1.000000000000e+00 
5.329279334975e+00 1.000000000000e+00 
5.333447427823e+00 1.000000000000e+00 
5.337615520671e+00 1.000000000000e+00 
5.341783613519e+00 1.000000000000e+00 
6.312106792441e+00 1.000000000000e+00 
6.316108161575e+00 1.000000000000e+00 
6.320109530709e+00 1.000000000000e+00 
6.324110899843e+00 1.000000000000e+00 
6.328112268977e+00 1.000000000000e+00 
7.299102342755e+00 1.000000000000e+00 
7.302936988175e+00 1.000000000000e+00 
7.306771633595e+00 1.000000000000e+00 
7.310606279015e+00 1.000000000000e+00 
7.314440924435e+00 1.000000000000e+00 
8.286097893069e+00 1.000000000000e+00 
8.289765814775e+00 1.000000000000e+00 
8.293433736481e+00 1.000000000000e+00 
8.297101658187e+00 1.000000000000e+00 
8.300769579893e+00 1.000000000000e+00 
9.273093443381e+00 1.000000000000e+00 
9.276594641373e+00 1.000000000000e+00 
9.280095839365e+00 1.000000000000e+00 
9.283597037357e+00 1.000000000000e+00 
9.287098235349e+00 1.000000000000e+00 
1.026008899369e+01 1.000000000000e+00 
1.026342346797e+01 1.000000000000e+00 
1.026675794225e+01 1.000000000000e+00 
1.027009241653e+01 1.000000000000e+00 
1.027342689080e+01 1.000000000000e+00 
1.124708454400e+01 1.000000000000e+00 
1.125025229457e+01 1.000000000000e+00 
1.125342004513e+01 1.000000000000e+00 
1.125658779570e+01 1.000000000000e+00 
1.125975554626e+01 1.000000000000e+00 
1.223408009431e+01 1.000000000000e+00 
1.223708112116e+01 1.000000000000e+00 
1.224008214801e+01 1.000000000000e+00 
1.224308317487e+01 1.000000000000e+00 
1.224608420172e+01 1.000000000000e+00 
1.322107564463e+01 1.000000000000e+00 
1.322390994776e+01 1.000000000000e+00 
1.322674425090e+01 1.000000000000e+00 
1.322957855403e+01 1.000000000000e+00 
1.323241285717e+01 1.000000000000e+00 
1.420807119494e+01 1.000000000000e+00 
1.421073877436e+01 1.000000000000e+00 
1.421340635378e+01 1.000000000000e+00 
1.421607393320e+01 1.000000000000e+00 
1.421874151263e+01 1.000000000000e+00 
1.519506674525e+01 1.000000000000e+00 
1.519756760096e+01 1.000000000000e+00 
1.520006845667e+01 1.000000000000e+00 
1.520256931237e+01 1.000000000000e+00 
1.520507016808e+01 1.000000000000e+00 
1.618206229556e+01 1.000000000000e+00 
1.618439642756e+01 1.000000000000e+00 
1.618673055955e+01 1.000000000000e+00 
1.618906469155e+01 1.000000000000e+00 
1.619139882354e+01 1.000000000000e+00 
1.716905784588e+01 1.000000000000e+00 
1.717122525416e+01 1.000000000000e+00 
1.717339266244e+01 1.000000000000e+00 
1.717556007072e+01 1.000000000000e+00 
1.717772747900e+01 1.000000000000e+00 
1.815605339620e+01 1.000000000000e+00 
1.815805408077e+01 1.000000000000e+00 
1.816005476533e+01 1.000000000000e+00 
1.816205544990e+01 1.000000000000e+00 
1.816405613447e+01 1.000000000000e+00 
1.914304894651e+01 1.000000000000e+00 
1.914488290737e+01 1.000000000000e+00 
1.914671686822e+01 1.000000000000e+00 
1.914855082907e+01 1.000000000000e+00 
1.915038478993e+01 1.000000000000e+00 
2.013004449683e+01 1.000000000000e+00 
2.013171173397e+01 1.000000000000e+00 
2.013337897111e+01 1.000000000000e+00 
2.013504620825e+01 1.000000000000e+00 
2.013671344539e+01 1.000000000000e+00 
2.111704004715e+01 1.000000000000e+00 
2.111854056057e+01 1.000000000000e+00 
2.112004107400e+01 1.000000000000e+00 
2.112154158742e+01 1.000000000000e+00 
2.112304210085e+01 1.000000000000e+00 
2.210403559747e+01 1.000000000000e+00 
2.210536938718e+01 1.000000000000e+00 
2.210670317689e+01 1.000000000000e+00 
2.210803696660e+01 1.000000000000e+00 
2.210937075631e+01 1.000000000000e+00 
2.309103114778e+01 1.000000000000e+00 
2.309219821378e+01 1.000000000000e+00 
2.309336527978e+01 1.000000000000e+00 
2.309453234577e+01 1.000000000000e+00 
2.309569941177e+01 1.000000000000e+00 
2.407802669810e+01 1.000000000000e+00 
2.407902704038e+01 1.000000000000e+00 
2.408002738267e+01 1.000000000000e+00 
2.408102772495e+01 1.000000000000e+00 
2.408202806723e+01 1.000000000000e+00 
2.506502224842e+01 1.000000000000e+00 
2.506585586699e+01 1.000000000000e+00 
2.506668948555e+01 1.000000000000e+00 
2.506752310412e+01 1.000000000000e+00 
2.506835672269e+01 1.000000000000e+00 
2.605201779873e+01 1.000000000000e+00 
2.605268469359e+01 1.000000000000e+00 
2.605335158844e+01 1.000000000000e+00 
2.605401848330e+01 1.000000000000e+00 
2.605468537816e+01 1.000000000000e+00 
2.703901334905e+01 1.000000000000e+00 
2.703951352019e+01 1.000000000000e+00 
2.704001369133e+01 1.000000000000e+00 
2.704051386247e+01 1.000000000000e+00 
2.704101403362e+01 1.000000000000e+00 
2.802600889937e+01 1.000000000000e+00 
2.802634234679e+01 1.000000000000e+00 
2.802667579422e+01 1.000000000000e+00 
2.802700924165e+01 1.000000000000e+00 
2.802734268908e+01 1.000000000000e+00 
2.901300444968e+01 1.000000000000e+00 
2.901317117340e+01 1.000000000000e+00 
2.901333789711e+01 1.000000000000e+00 
2.901350462082e+01 1.000000000000e+00 
2.901367134454e+01 1.000000000000e+00 
3.000000000000e+01 1.000000000000e+00 
3.000000000000e+01 1.000000000000e+00 
3.000000000000e+01 1.000000000000e+00 
3.000000000000e+01 1.000000000000e+00 
3.000000000000e+01 1.000000000000e+00 
3.002500000000e+01 1.000000000000e+00 
3.002500000000e+01 1.000000000000e+00 
3.002500000000e+01 1.000000000000e+00 
3.002500000000e+01 1.000000000000e+00 
3.002500000000e+01 1.000000000000e+00 
3.005000000000e+01 1.000000000000e+00 
3.005000000000e+01 1.000000000000e+00 
3.005000000000e+01 1.000000000000e+00 
3.005000000000e+01 1.000000000000e+00 
3.005000000000e+01 1.000000000000e+00 
3.007500000000e+01 1.000000000000e+00 
3.007500000000e+01 1.000000000000e+00 
3.007500000000e+01 1.000000000000e+00 
3.007500000000e+01 1.000000000000e+00 
3.007500000000e+01 1.000000000000e+00 
3.010000000000e+01 1.000000000000e+00 
3.010000000000e+01 1.000000000000e+00 
3.010000000000e+01 1.000000000000e+00 
3.010000000000e+01 1.000000000000e+00 
3.010000000000e+01 1.000000000000e+00 
3.012500000000e+01 1.000000000000e+00 
3.012500000000e+01 1.000000000000e+00 
3.012500000000e+01 1.000000000000e+00 
3.012500000000e+01 1.000000000000e+00 
3.012500000000e+01 1.000000000000e+00 
3.015000000000e+01 1.000000000000e+00 
3.015000000000e+01 1.000000000000e+00 
3.015000000000e+01 1.000000000000e+00 