 TITLE = "Profiles along polylines"
 VARIABLES = "DIST" "SATURATION1" 
 ZONE T="TIME=0.000000000000e+00"
8.689459255928e+00 1.000000000000e+00 
8.749372795703e+00 1.000000000000e+00 
8.809286335477e+00 1.000000000000e+00 
8.869199875252e+00 1.000000000000e+00 
8.929113415026e+00 1.000000000000e+00 
9.399810614064e+00 1.000000000000e+00 
9.457727035846e+00 1.000000000000e+00 
9.515643457628e+00 1.000000000000e+00 
9.573559879410e+00 1.000000000000e+00 
9.631476301192e+00 1.000000000000e+00 
1.011016197220e+01 1.000000000000e+00 
1.016608127599e+01 1.000000000000e+00 
1.022200057978e+01 1.000000000000e+00 
1.027791988357e+01 1.000000000000e+00 
1.033383918736e+01 1.000000000000e+00 
1.082051333034e+01 1.000000000000e+00 
1.087443551613e+01 1.000000000000e+00 
1.092835770193e+01 1.000000000000e+00 
1.098227988773e+01 1.000000000000e+00 
1.103620207352e+01 1.000000000000e+00 
1.153086468847e+01 1.000000000000e+00 
1.158278975628e+01 1.000000000000e+00 
1.163471482408e+01 1.000000000000e+00 
1.168663989188e+01 1.000000000000e+00 
1.173856495969e+01 1.000000000000e+00 
1.224121604661e+01 1.000000000000e+00 
1.229114399642e+01 1.000000000000e+00 
1.234107194623e+01 1.000000000000e+00 
1.239099989604e+01 1.000000000000e+00 
1.244092784585e+01 1.000000000000e+00 
1.295156740474e+01 1.000000000000e+00 
1.299949823656e+01 1.000000000000e+00 
1.304742906838e+01 1.000000000000e+00 
1.309535990020e+01 1.000000000000e+00 
1.314329073202e+01 1.000000000000e+00 
1.366191876288e+01 1.000000000000e+00 
1.370785247670e+01 1.000000000000e+00 
1.375378619053e+01 1.000000000000e+00 
1.379971990436e+01 1.000000000000e+00 
1.384565361819e+01 1.000000000000e+00 
1.437227012101e+01 1.000000000000e+00 
1.441620671685e+01 1.000000000000e+00 
1.446014331268e+01 1.000000000000e+00 
1.450407990852e+01 1.000000000000e+00 
1.454801650435e+01 1.000000000000e+00 
1.508262147915e+01 1.000000000000e+00 
1.512456095699e+01 1.000000000000e+00 
1.516650043483e+01 1.000000000000e+00 
1.520843991267e+01 1.000000000000e+00 
1.525037939051e+01 1.000000000000e+00 
1.579297283728e+01 1.000000000000e+00 
1.583291519713e+01 1.000000000000e+00 
1.587285755698e+01 1.000000000000e+00 
1.591279991683e+01 1.000000000000e+00 
1.595274227668e+01 1.000000000000e+00 
1.650332419541e+01 1.000000000000e+00 
1.654126943727e+01 1.000000000000e+00 
1.657921467913e+01 1.000000000000e+00 
1.661715992099e+01 1.000000000000e+00 
1.665510516284e+01 1.000000000000e+00 
1.721367555355e+01 1.000000000000e+00 
1.724962367741e+01 1.000000000000e+00 
1.728557180128e+01 1.000000000000e+00 
1.732151992514e+01 1.000000000000e+00 
1.735746804901e+01 1.000000000000e+00 
1.792402691168e+01 1.000000000000e+00 
1.795797791755e+01 1.000000000000e+00 
1.799192892343e+01 1.000000000000e+00 
1.802587992930e+01 1.000000000000e+00 
1.805983093517e+01 1.000000000000e+00 
1.863437826982e+01 1.000000000000e+00 
1.866633215770e+01 1.000000000000e+00 
1.869828604558e+01 1.000000000000e+00 
1.873023993346e+01 1.000000000000e+00 
1.876219382133e+01 1.000000000000e+00 
1.934472962795e+01 1.000000000000e+00 
1.937468639784e+01 1.000000000000e+00 
1.940464316772e+01 1.000000000000e+00 
1.943459993761e+01 1.000000000000e+00 
1.946455670750e+01 1.000000000000e+00 
2.005508098609e+01 1.000000000000e+00 
2.008304063798e+01 1.000000000000e+00 
2.011100028988e+01 1.000000000000e+00 
2.013895994177e+01 1.000000000000e+00 
2.016691959367e+01 1.000000000000e+00 
2.076543234422e+01 1.000000000000e+00 
2.079139487813e+01 1.000000000000e+00 
2.081735741203e+01 1.000000000000e+00 
2.084331994593e+01 1.000000000000e+00 
2.086928247983e+01 1.000000000000e+00 
2.147578370236e+01 1.000000000000e+00 
2.149974911827e+01 1.000000000000e+00 
2.152371453418e+01 1.000000000000e+00 
2.154767995009e+01 1.000000000000e+00 
2.157164536600e+01 1.000000000000e+00 
2.218613506050e+01 1.000000000000e+00 
2.220810335841e+01 1.000000000000e+00 
2.223007165633e+01 1.000000000000e+00 
2.225203995425e+01 1.000000000000e+00 
2.227400825217e+01 1.000000000000e+00 
2.289648641863e+01 1.000000000000e+00 
2.291645759856e+01 1.000000000000e+00 
2.293642877848e+01 1.000000000000e+00 
2.295639995841e+01 1.000000000000e+00 
2.297637113833e+01 1.000000000000e+00 
2.360683777677e+01 1.000000000000e+00 
2.362481183870e+01 1.000000000000e+00 
2.364278590063e+01 1.000000000000e+00 
2.366075996257e+01 1.000000000000e+00 
2.367873402450e+01 1.000000000000e+00 
2.431718913491e+01 1.000000000000e+00 
2.433316607885e+01 1.000000000000e+00 
2.434914302279e+01 1.000000000000e+00 
2.436511996673e+01 1.000000000000e+00 
2.438109691067e+01 1.000000000000e+00 
2.502754049304e+01 1.000000000000e+00 
2.504152031899e+01 1.000000000000e+00 
2.505550014494e+01 1.000000000000e+00 
2.506947997089e+01 1.000000000000e+00 
2.508345979683e+01 1.000000000000e+00 
2.573789185118e+01 1.000000000000e+00 
2.574987455913e+01 1.000000000000e+00 
2.576185726709e+01 1.000000000000e+00 
2.577383997504e+01 1.000000000000e+00 
2.578582268300e+01 1.000000000000e+00 
2.644824320932e+01 1.000000000000e+00 
2.645822879928e+01 1.000000000000e+00 
2.646821438924e+01 1.000000000000e+00 
2.647819997920e+01 1.000000000000e+00 
2.648818556917e+01 1.000000000000e+00 
2.715859456745e+01 1.000000000000e+00 
2.716658303942e+01 1.000000000000e+00 
2.717457151139e+01 1.000000000000e+00 
2.718255998336e+01 1.000000000000e+00 
2.719054845533e+01 1.000000000000e+00 
2.786894592559e+01 1.000000000000e+00 
2.787493727957e+01 1.000000000000e+00 
2.788092863354e+01 1.000000000000e+00 
2.788691998752e+01 1.000000000000e+00 
2.789291134150e+01 1.000000000000e+00 
2.857929728373e+01 1.000000000000e+00 
2.858329151971e+01 1.000000000000e+00 
2.858728575570e+01 1.000000000000e+00 
2.859127999168e+01 1.000000000000e+00 
2.859527422767e+01 1.000000000000e+00 
2.928964864186e+01 1.000000000000e+00 
2.929164575986e+01 1.000000000000e+00 
2.929364287785e+01 1.000000000000e+00 
2.929563999584e+01 1.000000000000e+00 
2.929763711383e+01 1.000000000000e+00 
3.000000000000e+01 1.000000000000e+00 
3.000000000000e+01 1.000000000000e+00 
3.000000000000e+01 1.000000000000e+00 
3.000000000000e+01 1.000000000000e+00 
3.000000000000e+01 1.000000000000e+00 
3.002500000000e+01 9.876207709446e-01 
3.002500000000e+01 9.876207709446e-01 
3.002500000000e+01 9.876207709446e-01 
3.002500000000e+01 9.876207709446e-01 
3.002500000000e+01 9.876207709446e-01 
3.005000000000e+01 9.697756439369e-01 
3.005000000000e+01 9.697756439369e-01 
3.005000000000e+01 9.697756439369e-01 
3.005000000000e+01 9.697756439369e-01 
3.005000000000e+01 9.697756439369e-01 
3.007500000000e+01 9.507134089444e-01 
3.007500000000e+01 9.507134089444e-01 
3.007500000000e+01 9.507134089444e-01 
3.007500000000e+01 9.507134089444e-01 
3.007500000000e+01 9.507134089444e-01 
3.010000000000e+01 9.315621650298e-01 
3.010000000000e+01 9.315621650298e-01 
3.010000000000e+01 9.315621650298e-01 
3.010000000000e+01 9.315621650298e-01 
3.010000000000e+01 9.315621650298e-01 
3.012500000000e+01 9.128758324042e-01 
3.012500000000e+01 9.128758324042e-01 
3.012500000000e+01 9.128758324042e-01 
3.012500000000e+01 9.128758324042e-01 
3.012500000000e+01 9.128758324042e-01 
3.015000000000e+01 8.949248043380e-01 
3.015000000000e+01 8.949248043380e-01 
3.015000000000e+01 8.949248043380e-01 
3.015000000000e+01 8.949248043380e-01 
3.015000000000e+01 8.949248043380e-01 
3.017500000000e+01 8.778290027968e-01 
3.017500000000e+01 8.778290027968e-01 
3.017500000000e+01 8.778290027968e-01 
3.017500000000e+01 8.778290027968e-01 
3.017500000000e+01 8.778290027968e-01 
3.020000000000e+01 8.616255702900e-01 
3.020000000000e+01 8.616255702900e-01 
3.020000000000e+01 8.616255702900e-01 
3.020000000000e+01 8.616255702900e-01 
3.020000000000e+01 8.616255702900e-01 
3.022500000000e+01 8.463059583920e-01 
3.022500000000e+01 8.463059583920e-01 
3.022500000000e+01 8.463059583920e-01 
3.022500000000e+01 8.463059583920e-01 
3.022500000000e+01 8.463059583920e-01 
3.025000000000e+01 8.318370344398e-01 
3.025000000000e+01 8.318370344398e-01 
3.025000000000e+01 8.318370344398e-01 
3.025000000000e+01 8.318370344398e-01 
3.025000000000e+01 8.318370344398e-01 
3.027500000000e+01 8.181733156316e-01 
3.027500000000e+01 8.181733156316e-01 
3.027500000000e+01 8.181733156316e-01 
3.027500000000e+01 8.181733156316e-01 
3.027500000000e+01 8.181733156316e-01 
3.030000000000e+01 8.052640970350e-01 
3.030000000000e+01 8.052640970350e-01 
3.030000000000e+01 8.052640970350e-01 
3.030000000000e+01 8.052640970350e-01 
3.030000000000e+01 8.052640970350e-01 
3.032500000000e+01 7.930575753856e-01 
3.032500000000e+01 7.930575753856e-01 
3.032500000000e+01 7.930575753856e-01 
3.032500000000e+01 7.930575753856e-01 
3.032500000000e+01 7.930575753856e-01 
3.035000000000e+01 7.815031815402e-01 
3.035000000000e+01 7.815031815402e-01 
3.035000000000e+01 7.815031815402e-01 
3.035000000000e+01 7.815031815402e-01 
3.035000000000e+01 7.815031815402e-01 
3.037500000000e+01 7.705528376764e-01 
3.037500000000e+01 7.705528376764e-01 
3.037500000000e+01 7.705528376764e-01 
3.037500000000e+01 7.705528376764e-01 
3.037500000000e+01 7.705528376764e-01 
3.040000000000e+01 7.601615689674e-01 
3.040000000000e+01 7.601615689674e-01 
3.040000000000e+01 7.601615689674e-01 
3.040000000000e+01 7.601615689674e-01 
3.040000000000e+01 7.601615689674e-01 
3.042500000000e+01 7.502877306002e-01 
3.042500000000e+01 7.502877306002e-01 
3.042500000000e+01 7.502877306002e-01 
3.042500000000e+01 7.502877306002e-01 
3.042500000000e+01 7.502877306002e-01 
3.045000000000e+01 7.408930096824e-01 
3.045000000000e+01 7.408930096824e-01 
3.045000000000e+01 7.408930096824e-01 
3.045000000000e+01 7.408930096824e-01 
3.045000000000e+01 7.408930096824e-01 
3.047500000000e+01 7.319422999608e-01 
3.047500000000e+01 7.319422999608e-01 
3.047500000000e+01 7.319422999608e-01 
3.047500000000e+01 7.319422999608e-01 
3.047500000000e+01 7.319422999608e-01 
3.050000000000e+01 7.234035093991e-01 
3.050000000000e+01 7.234035093991e-01 
3.050000000000e+01 7.234035093991e-01 
3.050000000000e+01 7.234035093991e-01 
3.050000000000e+01 7.234035093991e-01 
3.052500000000e+01 7.152473371957e-01 
3.052500000000e+01 7.152473371957e-01 
3.052500000000e+01 7.152473371957e-01 
3.052500000000e+01 7.152473371957e-01 
3.052500000000e+01 7.152473371957e-01 
3.055000000000e+01 7.074470422112e-01 
3.055000000000e+01 7.074470422112e-01 
3.055000000000e+01 7.074470422112e-01 
3.055000000000e+01 7.074470422112e-01 
3.055000000000e+01 7.074470422112e-01 
3.057500000000e+01 6.999782156504e-01 
3.057500000000e+01 6.999782156504e-01 
3.057500000000e+01 6.999782156504e-01 
3.057500000000e+01 6.999782156504e-01 
3.057500000000e+01 6.999782156504e-01 
3.060000000000e+01 6.928185651596e-01 
3.060000000000e+01 6.928185651596e-01 
3.060000000000e+01 6.928185651596e-01 
3.060000000000e+01 6.928185651596e-01 
3.060000000000e+01 6.928185651596e-01 
3.062500000000e+01 6.859477139679e-01 
3.062500000000e+01 6.859477139679e-01 
3.062500000000e+01 6.859477139679e-01 
3.062500000000e+01 6.859477139679e-01 
3.062500000000e+01 6.859477139679e-01 
3.065000000000e+01 6.793470165436e-01 
3.065000000000e+01 6.793470165436e-01 
3.065000000000e+01 6.793470165436e-01 
3.065000000000e+01 6.793470165436e-01 
3.065000000000e+01 6.793470165436e-01 
3.067500000000e+01 6.729993909360e-01 
3.067500000000e+01 6.729993909360e-01 
3.067500000000e+01 6.729993909360e-01 
3.067500000000e+01 6.729993909360e-01 
3.067500000000e+01 6.729993909360e-01 
3.070000000000e+01 6.668891672206e-01 
3.070000000000e+01 6.668891672206e-01 
3.070000000000e+01 6.668891672206e-01 
3.070000000000e+01 6.668891672206e-01 
3.070000000000e+01 6.668891672206e-01 
3.072500000000e+01 6.610019510587e-01 
3.072500000000e+01 6.610019510587e-01 
3.072500000000e+01 6.610019510587e-01 
3.072500000000e+01 6.610019510587e-01 
3.072500000000e+01 6.610019510587e-01 
3.075000000000e+01 6.553245011865e-01 
3.075000000000e+01 6.553245011865e-01 
3.075000000000e+01 6.553245011865e-01 
3.075000000000e+01 6.553245011865e-01 
3.075000000000e+01 6.553245011865e-01 
3.077500000000e+01 6.498446195878e-01 
3.077500000000e+01 6.498446195878e-01 
3.077500000000e+01 6.498446195878e-01 
3.077500000000e+01 6.498446195878e-01 
3.077500000000e+01 6.498446195878e-01 
3.080000000000e+01 6.445510531188e-01 
3.080000000000e+01 6.445510531188e-01 
3.080000000000e+01 6.445510531188e-01 
3.080000000000e+01 6.445510531188e-01 
3.080000000000e+01 6.445510531188e-01 
3.082500000000e+01 6.394334054150e-01 
3.082500000000e+01 6.394334054150e-01 
3.082500000000e+01 6.394334054150e-01 
3.082500000000e+01 6.394334054150e-01 
3.082500000000e+01 6.394334054150e-01 
3.085000000000e+01 6.344820579917e-01 
3.085000000000e+01 6.344820579917e-01 
3.085000000000e+01 6.344820579917e-01 
3.085000000000e+01 6.344820579917e-01 
3.085000000000e+01 6.344820579917e-01 
3.087500000000e+01 6.296880995462e-01 
3.087500000000e+01 6.296880995462e-01 
3.087500000000e+01 6.296880995462e-01 
3.087500000000e+01 6.296880995462e-01 
3.087500000000e+01 6.296880995462e-01 
3.090000000000e+01 6.250432625624e-01 
3.090000000000e+01 6.250432625624e-01 
3.090000000000e+01 6.250432625624e-01 
3.090000000000e+01 6.250432625624e-01 
3.090000000000e+01 6.250432625624e-01 
3.092500000000e+01 6.205398664126e-01 
3.092500000000e+01 6.205398664126e-01 
3.092500000000e+01 6.205398664126e-01 
3.092500000000e+01 6.205398664126e-01 
3.092500000000e+01 6.205398664126e-01 
3.095000000000e+01 6.161707662369e-01 
3.095000000000e+01 6.161707662369e-01 
3.095000000000e+01 6.161707662369e-01 
3.095000000000e+01 6.161707662369e-01 
3.095000000000e+01 6.161707662369e-01 
3.097500000000e+01 6.119293069613e-01 
3.097500000000e+01 6.119293069613e-01 
3.097500000000e+01 6.119293069613e-01 
3.097500000000e+01 6.119293069613e-01 
3.097500000000e+01 6.119293069613e-01 
3.100000000000e+01 6.078092818871e-01 
3.100000000000e+01 6.078092818871e-01 
3.100000000000e+01 6.078092818871e-01 
3.100000000000e+01 6.078092818871e-01 
3.100000000000e+01 6.078092818871e-01 
3.102500000000e+01 6.038048953494e-01 
3.102500000000e+01 6.038048953494e-01 
3.102500000000e+01 6.038048953494e-01 
3.102500000000e+01 6.038048953494e-01 
3.102500000000e+01 6.038048953494e-01 
3.105000000000e+01 5.999107290013e-01 
3.105000000000e+01 5.999107290013e-01 
3.105000000000e+01 5.999107290013e-01 
3.105000000000e+01 5.999107290013e-01 
3.105000000000e+01 5.999107290013e-01 
3.107500000000e+01 5.961217113309e-01 
3.107500000000e+01 5.961217113309e-01 
3.107500000000e+01 5.961217113309e-01 
3.107500000000e+01 5.961217113309e-01 
3.107500000000e+01 5.961217113309e-01 
3.110000000000e+01 5.924330900627e-01 
3.110000000000e+01 5.924330900627e-01 
3.110000000000e+01 5.924330900627e-01 
3.110000000000e+01 5.924330900627e-01 
3.110000000000e+01 5.924330900627e-01 
3.112500000000e+01 5.888404071392e-01 
3.112500000000e+01 5.888404071392e-01 
3.112500000000e+01 5.888404071392e-01 
3.112500000000e+01 5.888404071392e-01 
3.112500000000e+01 5.888404071392e-01 
3.115000000000e+01 5.853394760078e-01 
3.115000000000e+01 5.853394760078e-01 
3.115000000000e+01 5.853394760078e-01 
3.115000000000e+01 5.853394760078e-01 
3.115000000000e+01 5.853394760078e-01 
3.117500000000e+01 5.819263609758e-01 
3.117500000000e+01 5.819263609758e-01 
3.117500000000e+01 5.819263609758e-01 
3.117500000000e+01 5.819263609758e-01 
3.117500000000e+01 5.819263609758e-01 
3.120000000000e+01 5.785973584173e-01 
3.120000000000e+01 5.785973584173e-01 
3.120000000000e+01 5.785973584173e-01 
3.120000000000e+01 5.785973584173e-01 
3.120000000000e+01 5.785973584173e-01 
3.122500000000e+01 5.753489796460e-01 
3.122500000000e+01 5.753489796460e-01 
3.122500000000e+01 5.753489796460e-01 
3.122500000000e+01 5.753489796460e-01 
3.122500000000e+01 5.753489796460e-01 
3.125000000000e+01 5.721779352840e-01 
3.125000000000e+01 5.721779352840e-01 
3.125000000000e+01 5.721779352840e-01 
3.125000000000e+01 5.721779352840e-01 
3.125000000000e+01 5.721779352840e-01 
3.127500000000e+01 5.690811209785e-01 
3.127500000000e+01 5.690811209785e-01 
3.127500000000e+01 5.690811209785e-01 
3.127500000000e+01 5.690811209785e-01 
3.127500000000e+01 5.690811209785e-01 
3.130000000000e+01 5.660556043336e-01 
3.130000000000e+01 5.660556043336e-01 
3.130000000000e+01 5.660556043336e-01 
3.130000000000e+01 5.660556043336e-01 
3.130000000000e+01 5.660556043336e-01 
3.132500000000e+01 5.630986129391e-01 
3.132500000000e+01 5.630986129391e-01 
3.132500000000e+01 5.630986129391e-01 
3.132500000000e+01 5.630986129391e-01 
3.132500000000e+01 5.630986129391e-01 
3.135000000000e+01 5.602075233904e-01 
3.135000000000e+01 5.602075233904e-01 
3.135000000000e+01 5.602075233904e-01 
3.135000000000e+01 5.602075233904e-01 
3.135000000000e+01 5.602075233904e-01 
3.137500000000e+01 5.573798512060e-01 
3.137500000000e+01 5.573798512060e-01 
3.137500000000e+01 5.573798512060e-01 
3.137500000000e+01 5.573798512060e-01 
3.137500000000e+01 5.573798512060e-01 
3.140000000000e+01 5.546132415581e-01 
3.140000000000e+01 5.546132415581e-01 
3.140000000000e+01 5.546132415581e-01 
3.140000000000e+01 5.546132415581e-01 
3.140000000000e+01 5.546132415581e-01 
3.142500000000e+01 5.519054607414e-01 
3.142500000000e+01 5.519054607414e-01 
3.142500000000e+01 5.519054607414e-01 
3.142500000000e+01 5.519054607414e-01 
3.142500000000e+01 5.519054607414e-01 
3.145000000000e+01 5.492543883110e-01 
3.145000000000e+01 5.492543883110e-01 
3.145000000000e+01 5.492543883110e-01 
3.145000000000e+01 5.492543883110e-01 
3.145000000000e+01 5.492543883110e-01 
3.147500000000e+01 5.466580098318e-01 
3.147500000000e+01 5.466580098318e-01 
3.147500000000e+01 5.466580098318e-01 
3.147500000000e+01 5.466580098318e-01 
3.147500000000e+01 5.466580098318e-01 
3.150000000000e+01 5.441144101810e-01 
3.150000000000e+01 5.441144101810e-01 
3.150000000000e+01 5.441144101810e-01 
3.150000000000e+01 5.441144101810e-01 
3.150000000000e+01 5.441144101810e-01 
3.152500000000e+01 5.416217673588e-01 
3.152500000000e+01 5.416217673588e-01 
3.152500000000e+01 5.416217673588e-01 
3.152500000000e+01 5.416217673588e-01 
3.152500000000e+01 5.416217673588e-01 
3.155000000000e+01 5.391783467591e-01 
3.155000000000e+01 5.391783467591e-01 
3.155000000000e+01 5.391783467591e-01 
3.155000000000e+01 5.391783467591e-01 
3.155000000000e+01 5.391783467591e-01 
3.157500000000e+01 5.367824958643e-01 
3.157500000000e+01 5.367824958643e-01 
3.157500000000e+01 5.367824958643e-01 
3.157500000000e+01 5.367824958643e-01 
3.157500000000e+01 5.367824958643e-01 
3.160000000000e+01 5.344326393247e-01 
3.160000000000e+01 5.344326393247e-01 
3.160000000000e+01 5.344326393247e-01 
3.160000000000e+01 5.344326393247e-01 
3.160000000000e+01 5.344326393247e-01 
3.162500000000e+01 5.321272743928e-01 
3.162500000000e+01 5.321272743928e-01 
3.162500000000e+01 5.321272743928e-01 
3.162500000000e+01 5.321272743928e-01 
3.162500000000e+01 5.321272743928e-01 
3.165000000000e+01 5.298649666811e-01 
3.165000000000e+01 5.298649666811e-01 
3.165000000000e+01 5.298649666811e-01 
3.165000000000e+01 5.298649666811e-01 
3.165000000000e+01 5.298649666811e-01 
3.167500000000e+01 5.276443462180e-01 
3.167500000000e+01 5.276443462180e-01 
3.167500000000e+01 5.276443462180e-01 
3.167500000000e+01 5.276443462180e-01 
3.167500000000e+01 5.276443462180e-01 
3.170000000000e+01 5.254641037767e-01 
3.170000000000e+01 5.254641037767e-01 
3.170000000000e+01 5.254641037767e-01 
3.170000000000e+01 5.254641037767e-01 
3.170000000000e+01 5.254641037767e-01 
3.172500000000e+01 5.233229874560e-01 
3.172500000000e+01 5.233229874560e-01 
3.172500000000e+01 5.233229874560e-01 
3.172500000000e+01 5.233229874560e-01 
3.172500000000e+01 5.233229874560e-01 
3.175000000000e+01 5.212197994921e-01 
3.175000000000e+01 5.212197994921e-01 
3.175000000000e+01 5.212197994921e-01 
3.175000000000e+01 5.212197994921e-01 
3.175000000000e+01 5.212197994921e-01 
3.177500000000e+01 5.191533932842e-01 
3.177500000000e+01 5.191533932842e-01 
3.177500000000e+01 5.191533932842e-01 
3.177500000000e+01 5.191533932842e-01 
3.177500000000e+01 5.191533932842e-01 
3.180000000000e+01 5.171226706164e-01 
3.180000000000e+01 5.171226706164e-01 
3.180000000000e+01 5.171226706164e-01 
3.180000000000e+01 5.171226706164e-01 
3.180000000000e+01 5.171226706164e-01 
3.182500000000e+01 5.151265790614e-01 
3.182500000000e+01 5.151265790614e-01 
3.182500000000e+01 5.151265790614e-01 
3.182500000000e+01 5.151265790614e-01 
3.182500000000e+01 5.151265790614e-01 
3.185000000000e+01 5.131641095520e-01 
3.185000000000e+01 5.131641095520e-01 
3.185000000000e+01 5.131641095520e-01 
3.185000000000e+01 5.131641095520e-01 
3.185000000000e+01 5.131641095520e-01 
3.187500000000e+01 5.112342941078e-01 
3.187500000000e+01 5.112342941078e-01 
3.187500000000e+01 5.112342941078e-01 
3.187500000000e+01 5.112342941078e-01 
3.187500000000e+01 5.112342941078e-01 
3.190000000000e+01 5.093362037054e-01 
3.190000000000e+01 5.093362037054e-01 
3.190000000000e+01 5.093362037054e-01 
3.190000000000e+01 5.093362037054e-01 
3.190000000000e+01 5.093362037054e-01 
3.192500000000e+01 5.074689462822e-01 
3.192500000000e+01 5.074689462822e-01 
3.192500000000e+01 5.074689462822e-01 
3.192500000000e+01 5.074689462822e-01 
3.192500000000e+01 5.074689462822e-01 
3.195000000000e+01 5.056316648631e-01 
3.195000000000e+01 5.056316648631e-01 
3.195000000000e+01 5.056316648631e-01 
3.195000000000e+01 5.056316648631e-01 
3.195000000000e+01 5.056316648631e-01 
3.197500000000e+01 5.038235358020e-01 
3.197500000000e+01 5.038235358020e-01 
3.197500000000e+01 5.038235358020e-01 
3.197500000000e+01 5.038235358020e-01 
3.197500000000e+01 5.038235358020e-01 
3.200000000000e+01 4.987401743256e-01 
3.200000000000e+01 4.987899570197e-01 
3.200000000000e+01 4.988147906491e-01 
3.200000000000e+01 4.987650847831e-01 
3.200000000000e+01 4.988395852812e-01 
3.433789185119e+01 4.008413908487e-01 
3.434987455914e+01 4.005153016414e-01 
3.436185726710e+01 4.001903692056e-01 
3.437383997505e+01 3.998665865117e-01 
3.438582268301e+01 3.995439465904e-01 
3.667578370237e+01 3.566486929767e-01 
3.669974911828e+01 3.562905663629e-01 
3.672371453419e+01 3.559341295597e-01 
3.674767995010e+01 3.555793687310e-01 
3.677164536601e+01 3.552262702012e-01 
3.901367555356e+01 3.286121591836e-01 
3.904962367742e+01 3.282522123619e-01 
3.908557180129e+01 3.278941544254e-01 
3.912151992515e+01 3.275379681291e-01 
3.915746804902e+01 3.271836364515e-01 
4.135156740474e+01 3.087039832018e-01 
4.139949823656e+01 3.083506704967e-01 
4.144742906838e+01 3.079993224721e-01 
4.149535990020e+01 3.076499201103e-01 
4.154329073202e+01 3.073024446552e-01 
4.368945925593e+01 2.935304589260e-01 
4.374937279570e+01 2.931860330772e-01 
4.380928633548e+01 2.928435940362e-01 
4.386919987525e+01 2.925031218499e-01 
4.392911341503e+01 2.921645968497e-01 
 TITLE = "Profiles along polylines"
 VARIABLES = "DIST" "SATURATION1" 
 ZONE T="TIME=1.797693134862e+308"
8.689459255928e+00 1.000000000000e+00 
8.749372795703e+00 1.000000000000e+00 
8.809286335477e+00 1.000000000000e+00 
8.869199875252e+00 1.000000000000e+00 
8.929113415026e+00 1.000000000000e+00 
9.399810614064e+00 1.000000000000e+00 
9.457727035846e+00 1.000000000000e+00 
9.515643457628e+00 1.000000000000e+00 
9.573559879410e+00 1.000000000000e+00 
9.631476301192e+00 1.000000000000e+00 
1.011016197220e+01 1.000000000000e+00 
1.016608127599e+01 1.000000000000e+00 
1.022200057978e+01 1.000000000000e+00 
1.027791988357e+01 1.000000000000e+00 
1.033383918736e+01 1.000000000000e+00 
1.082051333034e+01 1.000000000000e+00 
1.087443551613e+01 1.000000000000e+00 
1.092835770193e+01 1.000000000000e+00 
1.098227988773e+01 1.000000000000e+00 
1.103620207352e+01 1.000000000000e+00 
1.153086468847e+01 1.000000000000e+00 
1.158278975628e+01 1.000000000000e+00 
1.163471482408e+01 1.000000000000e+00 
1.168663989188e+01 1.000000000000e+00 
1.173856495969e+01 1.000000000000e+00 
1.224121604661e+01 1.000000000000e+00 
1.229114399642e+01 1.000000000000e+00 
1.234107194623e+01 1.000000000000e+00 
1.239099989604e+01 1.000000000000e+00 
1.244092784585e+01 1.000000000000e+00 
1.295156740474e+01 1.000000000000e+00 
1.299949823656e+01 1.000000000000e+00 
1.304742906838e+01 1.000000000000e+00 
1.309535990020e+01 1.000000000000e+00 
1.314329073202e+01 1.000000000000e+00 
1.366191876288e+01 1.000000000000e+00 
1.370785247670e+01 1.000000000000e+00 
1.375378619053e+01 1.000000000000e+00 
1.379971990436e+01 1.000000000000e+00 
1.384565361819e+01 1.000000000000e+00 
1.437227012101e+01 1.000000000000e+00 
1.441620671685e+01 1.000000000000e+00 
1.446014331268e+01 1.000000000000e+00 
1.450407990852e+01 1.000000000000e+00 
1.454801650435e+01 1.000000000000e+00 
1.508262147915e+01 1.000000000000e+00 
1.512456095699e+01 1.000000000000e+00 
1.516650043483e+01 1.000000000000e+00 
1.520843991267e+01 1.000000000000e+00 
1.525037939051e+01 1.000000000000e+00 
1.579297283728e+01 1.000000000000e+00 
1.583291519713e+01 1.000000000000e+00 
1.587285755698e+01 1.000000000000e+00 
1.591279991683e+01 1.000000000000e+00 
1.595274227668e+01 1.000000000000e+00 
1.650332419541e+01 1.000000000000e+00 
1.654126943727e+01 1.000000000000e+00 
1.657921467913e+01 1.000000000000e+00 
1.661715992099e+01 1.000000000000e+00 
1.665510516284e+01 1.000000000000e+00 
1.721367555355e+01 1.000000000000e+00 
1.724962367741e+01 1.000000000000e+00 
1.728557180128e+01 1.000000000000e+00 
1.732151992514e+01 1.000000000000e+00 
1.735746804901e+01 1.000000000000e+00 
1.792402691168e+01 1.000000000000e+00 
1.795797791755e+01 1.000000000000e+00 
1.799192892343e+01 1.000000000000e+00 
1.802587992930e+01 1.000000000000e+00 
1.805983093517e+01 1.000000000000e+00 
1.863437826982e+01 1.000000000000e+00 
1.866633215770e+01 1.000000000000e+00 
1.869828604558e+01 1.000000000000e+00 
1.873023993346e+01 1.000000000000e+00 
1.876219382133e+01 1.000000000000e+00 
1.934472962795e+01 1.000000000000e+00 
1.937468639784e+01 1.000000000000e+00 
1.940464316772e+01 1.000000000000e+00 
1.943459993761e+01 1.000000000000e+00 
1.946455670750e+01 1.000000000000e+00 
2.005508098609e+01 1.000000000000e+00 
2.008304063798e+01 1.000000000000e+00 
2.011100028988e+01 1.000000000000e+00 
2.013895994177e+01 1.000000000000e+00 
2.016691959367e+01 1.000000000000e+00 
2.076543234422e+01 1.000000000000e+00 
2.079139487813e+01 1.000000000000e+00 
2.081735741203e+01 1.000000000000e+00 
2.084331994593e+01 1.000000000000e+00 
2.086928247983e+01 1.000000000000e+00 
2.147578370236e+01 1.000000000000e+00 
2.149974911827e+01 1.000000000000e+00 
2.152371453418e+01 1.000000000000e+00 
2.154767995009e+01 1.000000000000e+00 
2.157164536600e+01 1.000000000000e+00 
2.218613506050e+01 1.000000000000e+00 
2.220810335841e+01 1.000000000000e+00 
2.223007165633e+01 1.000000000000e+00 
2.225203995425e+01 1.000000000000e+00 
2.227400825217e+01 1.000000000000e+00 
2.289648641863e+01 1.000000000000e+00 
2.291645759856e+01 1.000000000000e+00 
2.293642877848e+01 1.000000000000e+00 
2.295639995841e+01 1.000000000000e+00 
2.297637113833e+01 1.000000000000e+00 
2.360683777677e+01 1.000000000000e+00 
2.362481183870e+01 1.000000000000e+00 
2.364278590063e+01 1.000000000000e+00 
2.366075996257e+01 1.000000000000e+00 
2.367873402450e+01 1.000000000000e+00 
2.431718913491e+01 1.000000000000e+00 
2.433316607885e+01 1.000000000000e+00 
2.434914302279e+01 1.000000000000e+00 
2.436511996673e+01 1.000000000000e+00 
2.438109691067e+01 1.000000000000e+00 
2.502754049304e+01 1.000000000000e+00 
2.504152031899e+01 1.000000000000e+00 
2.505550014494e+01 1.000000000000e+00 
2.506947997089e+01 1.000000000000e+00 
2.508345979683e+01 1.000000000000e+00 
2.573789185118e+01 1.000000000000e+00 
2.574987455913e+01 1.000000000000e+00 
2.576185726709e+01 1.000000000000e+00 
2.577383997504e+01 1.000000000000e+00 
2.578582268300e+01 1.000000000000e+00 
2.644824320932e+01 1.000000000000e+00 
2.645822879928e+01 1.000000000000e+00 
2.646821438924e+01 1.000000000000e+00 
2.647819997920e+01 1.000000000000e+00 
2.648818556917e+01 1.000000000000e+00 
2.715859456745e+01 1.000000000000e+00 
2.716658303942e+01 1.000000000000e+00 
2.717457151139e+01 1.000000000000e+00 
2.718255998336e+01 1.000000000000e+00 
2.719054845533e+01 1.000000000000e+00 
2.786894592559e+01 1.000000000000e+00 
2.787493727957e+01 1.000000000000e+00 
2.788092863354e+01 1.000000000000e+00 
2.788691998752e+01 1.000000000000e+00 
2.789291134150e+01 1.000000000000e+00 
2.857929728373e+01 1.000000000000e+00 
2.858329151971e+01 1.000000000000e+00 
2.858728575570e+01 1.000000000000e+00 
2.859127999168e+01 1.000000000000e+00 
2.859527422767e+01 1.000000000000e+00 
2.928964864186e+01 1.000000000000e+00 
2.929164575986e+01 1.000000000000e+00 
2.929364287785e+01 1.000000000000e+00 
2.929563999584e+01 1.000000000000e+00 
2.929763711383e+01 1.000000000000e+00 
3.000000000000e+01 1.000000000000e+00 
3.000000000000e+01 1.000000000000e+00 
3.000000000000e+01 1.000000000000e+00 
3.000000000000e+01 1.000000000000e+00 
3.000000000000e+01 1.000000000000e+00 
3.002500000000e+01 1.000000000000e+00 
3.002500000000e+01 1.000000000000e+00 
3.002500000000e+01 1.000000000000e+00 
3.002500000000e+01 1.000000000000e+00 
3.002500000000e+01 1.000000000000e+00 
3.005000000000e+01 1.000000000000e+00 
3.005000000000e+01 1.000000000000e+00 
3.005000000000e+01 1.000000000000e+00 
3.005000000000e+01 1.000000000000e+00 
3.005000000000e+01 1.000000000000e+00 
3.007500000000e+01 1.000000000000e+00 
3.007500000000e+01 1.000000000000e+00 
3.007500000000e+01 1.000000000000e+00 
3.007500000000e+01 1.000000000000e+00 
3.007500000000e+01 1.000000000000e+00 
3.010000000000e+01 1.000000000000e+00 
3.010000000000e+01 1.000000000000e+00 
3.010000000000e+01 1.000000000000e+00 
3.010000000000e+01 1.000000000000e+00 
3.010000000000e+01 1.000000000000e+00 
3.012500000000e+01 1.000000000000e+00 
3.012500000000e+01 1.000000000000e+00 
3.012500000000e+01 1.000000000000e+00 
3.012500000000e+01 1.000000000000e+00 
3.012500000000e+01 1.000000000000e+00 
3.015000000000e+01 1.000000000000e+00 
3.015000000000e+01 1.000000000000e+00 
3.015000000000e+01 1.000000000000e+00 