 TITLE = "Profiles along polylines"
 VARIABLES = "DIST" "SATURATION1" 
 ZONE T="TIME=0.000000000000e+00"
1.754023386815e+01 1.000000000000e+00 
1.757023101610e+01 1.000000000000e+00 
1.760022816405e+01 1.000000000000e+00 
1.763022531200e+01 1.000000000000e+00 
1.766022245995e+01 1.000000000000e+00 
1.795555940588e+01 1.000000000000e+00 
1.798455664889e+01 1.000000000000e+00 
1.801355389191e+01 1.000000000000e+00 
1.804255113493e+01 1.000000000000e+00 
1.807154837795e+01 1.000000000000e+00 
1.837088494360e+01 1.000000000000e+00 
1.839888228169e+01 1.000000000000e+00 
1.842687961978e+01 1.000000000000e+00 
1.845487695786e+01 1.000000000000e+00 
1.848287429595e+01 1.000000000000e+00 
1.878621048133e+01 1.000000000000e+00 
1.881320791449e+01 1.000000000000e+00 
1.884020534764e+01 1.000000000000e+00 
1.886720278080e+01 1.000000000000e+00 
1.889420021395e+01 1.000000000000e+00 
1.920153601906e+01 1.000000000000e+00 
1.922753354728e+01 1.000000000000e+00 
1.925353107551e+01 1.000000000000e+00 
1.927952860373e+01 1.000000000000e+00 
1.930552613195e+01 1.000000000000e+00 
1.961686155679e+01 1.000000000000e+00 
1.964185918008e+01 1.000000000000e+00 
1.966685680337e+01 1.000000000000e+00 
1.969185442666e+01 1.000000000000e+00 
1.971685204995e+01 1.000000000000e+00 
2.003218709452e+01 1.000000000000e+00 
2.005618481288e+01 1.000000000000e+00 
2.008018253124e+01 1.000000000000e+00 
2.010418024960e+01 1.000000000000e+00 
2.012817796796e+01 1.000000000000e+00 
2.044751263225e+01 1.000000000000e+00 
2.047051044567e+01 1.000000000000e+00 
2.049350825910e+01 1.000000000000e+00 
2.051650607253e+01 1.000000000000e+00 
2.053950388596e+01 1.000000000000e+00 
2.086283816997e+01 1.000000000000e+00 
2.088483607847e+01 1.000000000000e+00 
2.090683398697e+01 1.000000000000e+00 
2.092883189546e+01 1.000000000000e+00 
2.095082980396e+01 1.000000000000e+00 
2.127816370770e+01 1.000000000000e+00 
2.129916171127e+01 1.000000000000e+00 
2.132015971483e+01 1.000000000000e+00 
2.134115771840e+01 1.000000000000e+00 
2.136215572196e+01 1.000000000000e+00 
2.169348924543e+01 1.000000000000e+00 
2.171348734406e+01 1.000000000000e+00 
2.173348544270e+01 1.000000000000e+00 
2.175348354133e+01 1.000000000000e+00 
2.177348163996e+01 1.000000000000e+00 
2.210881478316e+01 1.000000000000e+00 
2.212781297686e+01 1.000000000000e+00 
2.214681117056e+01 1.000000000000e+00 
2.216580936426e+01 1.000000000000e+00 
2.218480755796e+01 1.000000000000e+00 
2.252414032089e+01 1.000000000000e+00 
2.254213860966e+01 1.000000000000e+00 
2.256013689843e+01 1.000000000000e+00 
2.257813518720e+01 1.000000000000e+00 
2.259613347597e+01 1.000000000000e+00 
2.293946585861e+01 1.000000000000e+00 
2.295646424245e+01 1.000000000000e+00 
2.297346262629e+01 1.000000000000e+00 
2.299046101013e+01 1.000000000000e+00 
2.300745939397e+01 1.000000000000e+00 
2.335479139634e+01 1.000000000000e+00 
2.337078987525e+01 1.000000000000e+00 
2.338678835416e+01 1.000000000000e+00 
2.340278683306e+01 1.000000000000e+00 
2.341878531197e+01 1.000000000000e+00 
2.377011693407e+01 1.000000000000e+00 
2.378511550805e+01 1.000000000000e+00 
2.380011408202e+01 1.000000000000e+00 
2.381511265600e+01 1.000000000000e+00 
2.383011122997e+01 1.000000000000e+00 
2.418544247180e+01 1.000000000000e+00 
2.419944114084e+01 1.000000000000e+00 
2.421343980989e+01 1.000000000000e+00 
2.422743847893e+01 1.000000000000e+00 
2.424143714797e+01 1.000000000000e+00 
2.460076800953e+01 1.000000000000e+00 
2.461376677364e+01 1.000000000000e+00 
2.462676553775e+01 1.000000000000e+00 
2.463976430186e+01 1.000000000000e+00 
2.465276306597e+01 1.000000000000e+00 
2.501609354726e+01 1.000000000000e+00 
2.502809240644e+01 1.000000000000e+00 
2.504009126562e+01 1.000000000000e+00 
2.505209012480e+01 1.000000000000e+00 
2.506408898398e+01 1.000000000000e+00 
2.543141908499e+01 1.000000000000e+00 
2.544241803923e+01 1.000000000000e+00 
2.545341699348e+01 1.000000000000e+00 
2.546441594773e+01 1.000000000000e+00 
2.547541490198e+01 1.000000000000e+00 
2.584674462271e+01 1.000000000000e+00 
2.585674367203e+01 1.000000000000e+00 
2.586674272135e+01 1.000000000000e+00 
2.587674177066e+01 1.000000000000e+00 
2.588674081998e+01 1.000000000000e+00 
2.626207016044e+01 1.000000000000e+00 
2.627106930483e+01 1.000000000000e+00 
2.628006844921e+01 1.000000000000e+00 
2.628906759360e+01 1.000000000000e+00 
2.629806673798e+01 1.000000000000e+00 
2.667739569817e+01 1.000000000000e+00 
2.668539493762e+01 1.000000000000e+00 
2.669339417708e+01 1.000000000000e+00 
2.670139341653e+01 1.000000000000e+00 
2.670939265598e+01 1.000000000000e+00 
2.709272123590e+01 1.000000000000e+00 
2.709972057042e+01 1.000000000000e+00 
2.710671990494e+01 1.000000000000e+00 
2.711371923946e+01 1.000000000000e+00 
2.712071857399e+01 1.000000000000e+00 
2.750804677363e+01 1.000000000000e+00 
2.751404620322e+01 1.000000000000e+00 
2.752004563281e+01 1.000000000000e+00 
2.752604506240e+01 1.000000000000e+00 
2.753204449199e+01 1.000000000000e+00 
2.792337231136e+01 1.000000000000e+00 
2.792837183602e+01 1.000000000000e+00 
2.793337136067e+01 1.000000000000e+00 
2.793837088533e+01 1.000000000000e+00 
2.794337040999e+01 1.000000000000e+00 
2.833869784909e+01 1.000000000000e+00 
2.834269746881e+01 1.000000000000e+00 
2.834669708854e+01 1.000000000000e+00 
2.835069670827e+01 1.000000000000e+00 
2.835469632799e+01 1.000000000000e+00 
2.875402338681e+01 1.000000000000e+00 
2.875702310161e+01 1.000000000000e+00 
2.876002281640e+01 1.000000000000e+00 
2.876302253120e+01 1.000000000000e+00 
2.876602224599e+01 1.000000000000e+00 
2.916934892454e+01 1.000000000000e+00 
2.917134873441e+01 1.000000000000e+00 
2.917334854427e+01 1.000000000000e+00 
2.917534835413e+01 1.000000000000e+00 
2.917734816400e+01 1.000000000000e+00 
2.958467446227e+01 1.000000000000e+00 
2.958567436720e+01 1.000000000000e+00 
2.958667427213e+01 1.000000000000e+00 
2.958767417707e+01 1.000000000000e+00 
2.958867408200e+01 1.000000000000e+00 
3.000000000000e+01 1.000000000000e+00 
3.000000000000e+01 1.000000000000e+00 
3.000000000000e+01 1.000000000000e+00 
3.000000000000e+01 1.000000000000e+00 
3.000000000000e+01 1.000000000000e+00 
3.002500000000e+01 9.876207709446e-01 
3.002500000000e+01 9.876207709446e-01 
3.002500000000e+01 9.876207709446e-01 
3.002500000000e+01 9.876207709446e-01 
3.002500000000e+01 9.876207709446e-01 
3.005000000000e+01 9.697756439369e-01 
3.005000000000e+01 9.697756439369e-01 
3.005000000000e+01 9.697756439369e-01 
3.005000000000e+01 9.697756439369e-01 
3.005000000000e+01 9.697756439369e-01 
3.007500000000e+01 9.507134089444e-01 
3.007500000000e+01 9.507134089444e-01 
3.007500000000e+01 9.507134089444e-01 
3.007500000000e+01 9.507134089444e-01 
3.007500000000e+01 9.507134089444e-01 
3.010000000000e+01 9.315621650298e-01 
3.010000000000e+01 9.315621650298e-01 
3.010000000000e+01 9.315621650298e-01 
3.010000000000e+01 9.315621650298e-01 
3.010000000000e+01 9.315621650298e-01 
3.012500000000e+01 9.128758324042e-01 
3.012500000000e+01 9.128758324042e-01 
3.012500000000e+01 9.128758324042e-01 
3.012500000000e+01 9.128758324042e-01 
3.012500000000e+01 9.128758324042e-01 
3.015000000000e+01 8.949248043380e-01 
3.015000000000e+01 8.949248043380e-01 
3.015000000000e+01 8.949248043380e-01 
3.015000000000e+01 8.949248043380e-01 
3.015000000000e+01 8.949248043380e-01 
3.017500000000e+01 8.778290027968e-01 
3.017500000000e+01 8.778290027968e-01 
3.017500000000e+01 8.778290027968e-01 
3.017500000000e+01 8.778290027968e-01 
3.017500000000e+01 8.778290027968e-01 
3.020000000000e+01 8.616255702900e-01 
3.020000000000e+01 8.616255702900e-01 
3.020000000000e+01 8.616255702900e-01 
3.020000000000e+01 8.616255702900e-01 
3.020000000000e+01 8.616255702900e-01 
3.022500000000e+01 8.463059583920e-01 
3.022500000000e+01 8.463059583920e-01 
3.022500000000e+01 8.463059583920e-01 
3.022500000000e+01 8.463059583920e-01 
3.022500000000e+01 8.463059583920e-01 
3.025000000000e+01 8.318370344398e-01 
3.025000000000e+01 8.318370344398e-01 
3.025000000000e+01 8.318370344398e-01 
3.025000000000e+01 8.318370344398e-01 
3.025000000000e+01 8.318370344398e-01 
3.027500000000e+01 8.181733156316e-01 
3.027500000000e+01 8.181733156316e-01 
3.027500000000e+01 8.181733156316e-01 
3.027500000000e+01 8.181733156316e-01 
3.027500000000e+01 8.181733156316e-01 
3.030000000000e+01 8.052640970350e-01 
3.030000000000e+01 8.052640970350e-01 
3.030000000000e+01 8.052640970350e-01 
3.030000000000e+01 8.052640970350e-01 
3.030000000000e+01 8.052640970350e-01 
3.032500000000e+01 7.930575753856e-01 
3.032500000000e+01 7.930575753856e-01 
3.032500000000e+01 7.930575753856e-01 
3.032500000000e+01 7.930575753856e-01 
3.032500000000e+01 7.930575753856e-01 
3.035000000000e+01 7.815031815402e-01 
3.035000000000e+01 7.815031815402e-01 
3.035000000000e+01 7.815031815402e-01 
3.035000000000e+01 7.815031815402e-01 
3.035000000000e+01 7.815031815402e-01 
3.037500000000e+01 7.705528376764e-01 
3.037500000000e+01 7.705528376764e-01 
3.037500000000e+01 7.705528376764e-01 
3.037500000000e+01 7.705528376764e-01 
3.037500000000e+01 7.705528376764e-01 
3.040000000000e+01 7.601615689674e-01 
3.040000000000e+01 7.601615689674e-01 
3.040000000000e+01 7.601615689674e-01 
3.040000000000e+01 7.601615689674e-01 
3.040000000000e+01 7.601615689674e-01 
3.042500000000e+01 7.502877306002e-01 
3.042500000000e+01 7.502877306002e-01 
3.042500000000e+01 7.502877306002e-01 
3.042500000000e+01 7.502877306002e-01 
3.042500000000e+01 7.502877306002e-01 
3.045000000000e+01 7.408930096824e-01 
3.045000000000e+01 7.408930096824e-01 
3.045000000000e+01 7.408930096824e-01 
3.045000000000e+01 7.408930096824e-01 
3.045000000000e+01 7.408930096824e-01 
3.047500000000e+01 7.319422999608e-01 
3.047500000000e+01 7.319422999608e-01 
3.047500000000e+01 7.319422999608e-01 
3.047500000000e+01 7.319422999608e-01 
3.047500000000e+01 7.319422999608e-01 
3.050000000000e+01 7.234035093991e-01 
3.050000000000e+01 7.234035093991e-01 
3.050000000000e+01 7.234035093991e-01 
3.050000000000e+01 7.234035093991e-01 
3.050000000000e+01 7.234035093991e-01 
3.052500000000e+01 7.152473371957e-01 
3.052500000000e+01 7.152473371957e-01 
3.052500000000e+01 7.152473371957e-01 
3.052500000000e+01 7.152473371957e-01 
3.052500000000e+01 7.152473371957e-01 
3.055000000000e+01 7.074470422112e-01 
3.055000000000e+01 7.074470422112e-01 
3.055000000000e+01 7.074470422112e-01 
3.055000000000e+01 7.074470422112e-01 
3.055000000000e+01 7.074470422112e-01 
3.057500000000e+01 6.999782156504e-01 
3.057500000000e+01 6.999782156504e-01 
3.057500000000e+01 6.999782156504e-01 
3.057500000000e+01 6.999782156504e-01 
3.057500000000e+01 6.999782156504e-01 
3.060000000000e+01 6.928185651596e-01 
3.060000000000e+01 6.928185651596e-01 
3.060000000000e+01 6.928185651596e-01 
3.060000000000e+01 6.928185651596e-01 
3.060000000000e+01 6.928185651596e-01 
3.062500000000e+01 6.859477139679e-01 
3.062500000000e+01 6.859477139679e-01 
3.062500000000e+01 6.859477139679e-01 
3.062500000000e+01 6.859477139679e-01 
3.062500000000e+01 6.859477139679e-01 
3.065000000000e+01 6.793470165436e-01 
3.065000000000e+01 6.793470165436e-01 
3.065000000000e+01 6.793470165436e-01 
3.065000000000e+01 6.793470165436e-01 
3.065000000000e+01 6.793470165436e-01 
3.067500000000e+01 6.729993909360e-01 
3.067500000000e+01 6.729993909360e-01 
3.067500000000e+01 6.729993909360e-01 
3.067500000000e+01 6.729993909360e-01 
3.067500000000e+01 6.729993909360e-01 
3.070000000000e+01 6.668891672206e-01 
3.070000000000e+01 6.668891672206e-01 
3.070000000000e+01 6.668891672206e-01 
3.070000000000e+01 6.668891672206e-01 
3.070000000000e+01 6.668891672206e-01 
3.072500000000e+01 6.610019510587e-01 
3.072500000000e+01 6.610019510587e-01 
3.072500000000e+01 6.610019510587e-01 
3.072500000000e+01 6.610019510587e-01 
3.072500000000e+01 6.610019510587e-01 
3.075000000000e+01 6.553245011865e-01 
3.075000000000e+01 6.553245011865e-01 
3.075000000000e+01 6.553245011865e-01 
3.075000000000e+01 6.553245011865e-01 
3.075000000000e+01 6.553245011865e-01 
3.077500000000e+01 6.498446195878e-01 
3.077500000000e+01 6.498446195878e-01 
3.077500000000e+01 6.498446195878e-01 
3.077500000000e+01 6.498446195878e-01 
3.077500000000e+01 6.498446195878e-01 
3.080000000000e+01 6.445510531188e-01 
3.080000000000e+01 6.445510531188e-01 
3.080000000000e+01 6.445510531188e-01 
3.080000000000e+01 6.445510531188e-01 
3.080000000000e+01 6.445510531188e-01 
3.082500000000e+01 6.394334054150e-01 
3.082500000000e+01 6.394334054150e-01 
3.082500000000e+01 6.394334054150e-01 
3.082500000000e+01 6.394334054150e-01 
3.082500000000e+01 6.394334054150e-01 
3.085000000000e+01 6.344820579917e-01 
3.085000000000e+01 6.344820579917e-01 
3.085000000000e+01 6.344820579917e-01 
3.085000000000e+01 6.344820579917e-01 
3.085000000000e+01 6.344820579917e-01 
3.087500000000e+01 6.296880995462e-01 
3.087500000000e+01 6.296880995462e-01 
3.087500000000e+01 6.296880995462e-01 
3.087500000000e+01 6.296880995462e-01 
3.087500000000e+01 6.296880995462e-01 
3.090000000000e+01 6.250432625624e-01 
3.090000000000e+01 6.250432625624e-01 
3.090000000000e+01 6.250432625624e-01 
3.090000000000e+01 6.250432625624e-01 
3.090000000000e+01 6.250432625624e-01 
3.092500000000e+01 6.205398664126e-01 
3.092500000000e+01 6.205398664126e-01 
3.092500000000e+01 6.205398664126e-01 
3.092500000000e+01 6.205398664126e-01 
3.092500000000e+01 6.205398664126e-01 
3.095000000000e+01 6.161707662369e-01 
3.095000000000e+01 6.161707662369e-01 
3.095000000000e+01 6.161707662369e-01 
3.095000000000e+01 6.161707662369e-01 
3.095000000000e+01 6.161707662369e-01 
3.097500000000e+01 6.119293069613e-01 
3.097500000000e+01 6.119293069613e-01 
3.097500000000e+01 6.119293069613e-01 
3.097500000000e+01 6.119293069613e-01 
3.097500000000e+01 6.119293069613e-01 
3.100000000000e+01 6.078092818871e-01 
3.100000000000e+01 6.078092818871e-01 
3.100000000000e+01 6.078092818871e-01 
3.100000000000e+01 6.078092818871e-01 
3.100000000000e+01 6.078092818871e-01 
3.102500000000e+01 6.038048953494e-01 
3.102500000000e+01 6.038048953494e-01 
3.102500000000e+01 6.038048953494e-01 
3.102500000000e+01 6.038048953494e-01 
3.102500000000e+01 6.038048953494e-01 
3.105000000000e+01 5.999107290013e-01 
3.105000000000e+01 5.999107290013e-01 
3.105000000000e+01 5.999107290013e-01 
3.105000000000e+01 5.999107290013e-01 
3.105000000000e+01 5.999107290013e-01 
3.107500000000e+01 5.961217113309e-01 
3.107500000000e+01 5.961217113309e-01 
3.107500000000e+01 5.961217113309e-01 
3.107500000000e+01 5.961217113309e-01 
3.107500000000e+01 5.961217113309e-01 
3.110000000000e+01 5.924330900627e-01 
3.110000000000e+01 5.924330900627e-01 
3.110000000000e+01 5.924330900627e-01 
3.110000000000e+01 5.924330900627e-01 
3.110000000000e+01 5.924330900627e-01 
3.112500000000e+01 5.888404071392e-01 
3.112500000000e+01 5.888404071392e-01 
3.112500000000e+01 5.888404071392e-01 
3.112500000000e+01 5.888404071392e-01 
3.112500000000e+01 5.888404071392e-01 
3.115000000000e+01 5.853394760078e-01 
3.115000000000e+01 5.853394760078e-01 
3.115000000000e+01 5.853394760078e-01 
3.115000000000e+01 5.853394760078e-01 
3.115000000000e+01 5.853394760078e-01 
3.117500000000e+01 5.819263609758e-01 
3.117500000000e+01 5.819263609758e-01 
3.117500000000e+01 5.819263609758e-01 
3.117500000000e+01 5.819263609758e-01 
3.117500000000e+01 5.819263609758e-01 
3.120000000000e+01 5.785973584173e-01 
3.120000000000e+01 5.785973584173e-01 
3.120000000000e+01 5.785973584173e-01 
3.120000000000e+01 5.785973584173e-01 
3.120000000000e+01 5.785973584173e-01 
3.122500000000e+01 5.753489796460e-01 
3.122500000000e+01 5.753489796460e-01 
3.122500000000e+01 5.753489796460e-01 
3.122500000000e+01 5.753489796460e-01 
3.122500000000e+01 5.753489796460e-01 
3.125000000000e+01 5.721779352840e-01 
3.125000000000e+01 5.721779352840e-01 
3.125000000000e+01 5.721779352840e-01 
3.125000000000e+01 5.721779352840e-01 
3.125000000000e+01 5.721779352840e-01 
3.127500000000e+01 5.690811209785e-01 
3.127500000000e+01 5.690811209785e-01 
3.127500000000e+01 5.690811209785e-01 
3.127500000000e+01 5.690811209785e-01 
3.127500000000e+01 5.690811209785e-01 
3.130000000000e+01 5.660556043336e-01 
3.130000000000e+01 5.660556043336e-01 
3.130000000000e+01 5.660556043336e-01 
3.130000000000e+01 5.660556043336e-01 
3.130000000000e+01 5.660556043336e-01 
3.132500000000e+01 5.630986129391e-01 
3.132500000000e+01 5.630986129391e-01 
3.132500000000e+01 5.630986129391e-01 
3.132500000000e+01 5.630986129391e-01 
3.132500000000e+01 5.630986129391e-01 
3.135000000000e+01 5.602075233904e-01 
3.135000000000e+01 5.602075233904e-01 
3.135000000000e+01 5.602075233904e-01 
3.135000000000e+01 5.602075233904e-01 
3.135000000000e+01 5.602075233904e-01 
3.137500000000e+01 5.573798512060e-01 
3.137500000000e+01 5.573798512060e-01 
3.137500000000e+01 5.573798512060e-01 
3.137500000000e+01 5.573798512060e-01 
3.137500000000e+01 5.573798512060e-01 
3.140000000000e+01 5.546132415581e-01 
3.140000000000e+01 5.546132415581e-01 
3.140000000000e+01 5.546132415581e-01 
3.140000000000e+01 5.546132415581e-01 
3.140000000000e+01 5.546132415581e-01 
3.142500000000e+01 5.519054607414e-01 
3.142500000000e+01 5.519054607414e-01 
3.142500000000e+01 5.519054607414e-01 
3.142500000000e+01 5.519054607414e-01 
3.142500000000e+01 5.519054607414e-01 
3.145000000000e+01 5.492543883110e-01 
3.145000000000e+01 5.492543883110e-01 
3.145000000000e+01 5.492543883110e-01 
3.145000000000e+01 5.492543883110e-01 
3.145000000000e+01 5.492543883110e-01 
3.147500000000e+01 5.466580098318e-01 
3.147500000000e+01 5.466580098318e-01 
3.147500000000e+01 5.466580098318e-01 
3.147500000000e+01 5.466580098318e-01 
3.147500000000e+01 5.466580098318e-01 
3.150000000000e+01 5.441144101810e-01 
3.150000000000e+01 5.441144101810e-01 
3.150000000000e+01 5.441144101810e-01 
3.150000000000e+01 5.441144101810e-01 
3.150000000000e+01 5.441144101810e-01 
3.152500000000e+01 5.416217673588e-01 
3.152500000000e+01 5.416217673588e-01 
3.152500000000e+01 5.416217673588e-01 
3.152500000000e+01 5.416217673588e-01 
3.152500000000e+01 5.416217673588e-01 
3.155000000000e+01 5.391783467591e-01 
3.155000000000e+01 5.391783467591e-01 
3.155000000000e+01 5.391783467591e-01 
3.155000000000e+01 5.391783467591e-01 
3.155000000000e+01 5.391783467591e-01 
3.157500000000e+01 5.367824958643e-01 
3.157500000000e+01 5.367824958643e-01 
3.157500000000e+01 5.367824958643e-01 
3.157500000000e+01 5.367824958643e-01 
3.157500000000e+01 5.367824958643e-01 
3.160000000000e+01 5.344326393247e-01 
3.160000000000e+01 5.344326393247e-01 
3.160000000000e+01 5.344326393247e-01 
3.160000000000e+01 5.344326393247e-01 
3.160000000000e+01 5.344326393247e-01 
3.162500000000e+01 5.321272743928e-01 
3.162500000000e+01 5.321272743928e-01 
3.162500000000e+01 5.321272743928e-01 
3.162500000000e+01 5.321272743928e-01 
3.162500000000e+01 5.321272743928e-01 
3.165000000000e+01 5.298649666811e-01 
3.165000000000e+01 5.298649666811e-01 
3.165000000000e+01 5.298649666811e-01 
3.165000000000e+01 5.298649666811e-01 
3.165000000000e+01 5.298649666811e-01 
3.167500000000e+01 5.276443462180e-01 
3.167500000000e+01 5.276443462180e-01 
3.167500000000e+01 5.276443462180e-01 
3.167500000000e+01 5.276443462180e-01 
3.167500000000e+01 5.276443462180e-01 
3.170000000000e+01 5.254641037767e-01 
3.170000000000e+01 5.254641037767e-01 
3.170000000000e+01 5.254641037767e-01 
3.170000000000e+01 5.254641037767e-01 
3.170000000000e+01 5.254641037767e-01 
3.172500000000e+01 5.233229874560e-01 
3.172500000000e+01 5.233229874560e-01 
3.172500000000e+01 5.233229874560e-01 
3.172500000000e+01 5.233229874560e-01 
3.172500000000e+01 5.233229874560e-01 
3.175000000000e+01 5.212197994921e-01 
3.175000000000e+01 5.212197994921e-01 
3.175000000000e+01 5.212197994921e-01 
3.175000000000e+01 5.212197994921e-01 
3.175000000000e+01 5.212197994921e-01 
3.177500000000e+01 5.191533932842e-01 
3.177500000000e+01 5.191533932842e-01 
3.177500000000e+01 5.191533932842e-01 
3.177500000000e+01 5.191533932842e-01 
3.177500000000e+01 5.191533932842e-01 
3.180000000000e+01 5.171226706164e-01 
3.180000000000e+01 5.171226706164e-01 
3.180000000000e+01 5.171226706164e-01 
3.180000000000e+01 5.171226706164e-01 
3.180000000000e+01 5.171226706164e-01 
3.182500000000e+01 5.151265790614e-01 
3.182500000000e+01 5.151265790614e-01 
3.182500000000e+01 5.151265790614e-01 
3.182500000000e+01 5.151265790614e-01 
3.182500000000e+01 5.151265790614e-01 
3.185000000000e+01 5.131641095520e-01 
3.185000000000e+01 5.131641095520e-01 
3.185000000000e+01 5.131641095520e-01 
3.185000000000e+01 5.131641095520e-01 
3.185000000000e+01 5.131641095520e-01 
3.187500000000e+01 5.112342941078e-01 
3.187500000000e+01 5.112342941078e-01 
3.187500000000e+01 5.112342941078e-01 
3.187500000000e+01 5.112342941078e-01 
3.187500000000e+01 5.112342941078e-01 
3.190000000000e+01 5.093362037054e-01 
3.190000000000e+01 5.093362037054e-01 
3.190000000000e+01 5.093362037054e-01 
3.190000000000e+01 5.093362037054e-01 
3.190000000000e+01 5.093362037054e-01 
3.192500000000e+01 5.074689462822e-01 
3.192500000000e+01 5.074689462822e-01 
3.192500000000e+01 5.074689462822e-01 
3.192500000000e+01 5.074689462822e-01 
3.192500000000e+01 5.074689462822e-01 
3.195000000000e+01 5.056316648631e-01 
3.195000000000e+01 5.056316648631e-01 
3.195000000000e+01 5.056316648631e-01 
3.195000000000e+01 5.056316648631e-01 
3.195000000000e+01 5.056316648631e-01 
3.197500000000e+01 5.038235358020e-01 
3.197500000000e+01 5.038235358020e-01 
3.197500000000e+01 5.038235358020e-01 
3.197500000000e+01 5.038235358020e-01 
3.197500000000e+01 5.038235358020e-01 
3.200000000000e+01 4.948525909785e-01 
3.200000000000e+01 4.948802970578e-01 
3.200000000000e+01 4.948941478053e-01 
3.200000000000e+01 4.948664447773e-01 
3.200000000000e+01 4.949079970053e-01 
3.610804677363e+01 3.623771862913e-01 
3.611404620322e+01 3.622725860643e-01 
3.612004563281e+01 3.621681209483e-01 
3.612604506240e+01 3.620637906431e-01 
3.613204449199e+01 3.619595948498e-01 
4.021609354726e+01 3.169147755819e-01 
4.022809240644e+01 3.168126419515e-01 
4.024009126562e+01 3.167106675347e-01 
4.025209012480e+01 3.166088518989e-01 
4.026408898398e+01 3.165071946131e-01 
4.432414032089e+01 2.897106497258e-01 
4.434213860966e+01 2.896130184117e-01 
4.436013689843e+01 2.895155498310e-01 
4.437813518720e+01 2.894182435098e-01 
4.439613347597e+01 2.893210989766e-01 
4.843218709452e+01 2.710945423675e-01 
4.845618481288e+01 2.710014464837e-01 
4.848018253124e+01 2.709085114408e-01 
4.850418024960e+01 2.708157367533e-01 
4.852817796796e+01 2.707231219379e-01 
5.254023386815e+01 2.572291017302e-01 
5.257023101610e+01 2.571400486622e-01 
5.260022816405e+01 2.570511529363e-01 
5.263022531200e+01 2.569624140668e-01 
5.266022245995e+01 2.568738315702e-01 
 TITLE = "Profiles along polylines"
 VARIABLES = "DIST" "SATURATION1" 
 ZONE T="TIME=1.797693134862e+308"
1.754023386815e+01 1.000000000000e+00 
1.757023101610e+01 1.000000000000e+00 
1.760022816405e+01 1.000000000000e+00 
1.763022531200e+01 1.000000000000e+00 
1.766022245995e+01 1.000000000000e+00 
1.795555940588e+01 1.000000000000e+00 
1.798455664889e+01 1.000000000000e+00 
1.801355389191e+01 1.000000000000e+00 
1.804255113493e+01 1.000000000000e+00 
1.807154837795e+01 1.000000000000e+00 
1.837088494360e+01 1.000000000000e+00 
1.839888228169e+01 1.000000000000e+00 
1.842687961978e+01 1.000000000000e+00 
1.845487695786e+01 1.000000000000e+00 
1.848287429595e+01 1.000000000000e+00 
1.878621048133e+01 1.000000000000e+00 
1.881320791449e+01 1.000000000000e+00 
1.884020534764e+01 1.000000000000e+00 
1.886720278080e+01 1.000000000000e+00 
1.889420021395e+01 1.000000000000e+00 
1.920153601906e+01 1.000000000000e+00 
1.922753354728e+01 1.000000000000e+00 
1.925353107551e+01 1.000000000000e+00 
1.927952860373e+01 1.000000000000e+00 
1.930552613195e+01 1.000000000000e+00 
1.961686155679e+01 1.000000000000e+00 
1.964185918008e+01 1.000000000000e+00 
1.966685680337e+01 1.000000000000e+00 
1.969185442666e+01 1.000000000000e+00 
1.971685204995e+01 1.000000000000e+00 
2.003218709452e+01 1.000000000000e+00 
2.005618481288e+01 1.000000000000e+00 
2.008018253124e+01 1.000000000000e+00 
2.010418024960e+01 1.000000000000e+00 
2.012817796796e+01 1.000000000000e+00 
2.044751263225e+01 1.000000000000e+00 
2.047051044567e+01 1.000000000000e+00 
2.049350825910e+01 1.000000000000e+00 
2.051650607253e+01 1.000000000000e+00 
2.053950388596e+01 1.000000000000e+00 
2.086283816997e+01 1.000000000000e+00 
2.088483607847e+01 1.000000000000e+00 
2.090683398697e+01 1.000000000000e+00 
2.092883189546e+01 1.000000000000e+00 
2.095082980396e+01 1.000000000000e+00 
2.127816370770e+01 1.000000000000e+00 
2.129916171127e+01 1.000000000000e+00 
2.132015971483e+01 1.000000000000e+00 
2.134115771840e+01 1.000000000000e+00 
2.136215572196e+01 1.000000000000e+00 
2.169348924543e+01 1.000000000000e+00 
2.171348734406e+01 1.000000000000e+00 
2.173348544270e+01 1.000000000000e+00 
2.175348354133e+01 1.000000000000e+00 
2.177348163996e+01 1.000000000000e+00 
2.210881478316e+01 1.000000000000e+00 
2.212781297686e+01 1.000000000000e+00 
2.214681117056e+01 1.000000000000e+00 
2.216580936426e+01 1.000000000000e+00 
2.218480755796e+01 1.000000000000e+00 
2.252414032089e+01 1.000000000000e+00 
2.254213860966e+01 1.000000000000e+00 
2.256013689843e+01 1.000000000000e+00 
2.257813518720e+01 1.000000000000e+00 
2.259613347597e+01 1.000000000000e+00 
2.293946585861e+01 1.000000000000e+00 
2.295646424245e+01 1.000000000000e+00 
2.297346262629e+01 1.000000000000e+00 
2.299046101013e+01 1.000000000000e+00 
2.300745939397e+01 1.000000000000e+00 
2.335479139634e+01 1.000000000000e+00 
2.337078987525e+01 1.000000000000e+00 
2.338678835416e+01 1.000000000000e+00 
2.340278683306e+01 1.000000000000e+00 
2.341878531197e+01 1.000000000000e+00 
2.377011693407e+01 1.000000000000e+00 
2.378511550805e+01 1.000000000000e+00 
2.380011408202e+01 1.000000000000e+00 
2.381511265600e+01 1.000000000000e+00 
2.383011122997e+01 1.000000000000e+00 
2.418544247180e+01 1.000000000000e+00 
2.419944114084e+01 1.000000000000e+00 
2.421343980989e+01 1.000000000000e+00 
2.422743847893e+01 1.000000000000e+00 
2.424143714797e+01 1.000000000000e+00 
2.460076800953e+01 1.000000000000e+00 
2.461376677364e+01 1.000000000000e+00 
2.462676553775e+01 1.000000000000e+00 
2.463976430186e+01 1.000000000000e+00 
2.465276306597e+01 1.000000000000e+00 
2.501609354726e+01 1.000000000000e+00 
2.502809240644e+01 1.000000000000e+00 
2.504009126562e+01 1.000000000000e+00 
2.505209012480e+01 1.000000000000e+00 
2.506408898398e+01 1.000000000000e+00 
2.543141908499e+01 1.000000000000e+00 
2.544241803923e+01 1.000000000000e+00 
2.545341699348e+01 1.000000000000e+00 
2.546441594773e+01 1.000000000000e+00 
2.547541490198e+01 1.000000000000e+00 
2.584674462271e+01 1.000000000000e+00 
2.585674367203e+01 1.000000000000e+00 
2.586674272135e+01 1.000000000000e+00 
2.587674177066e+01 1.000000000000e+00 
2.588674081998e+01 1.000000000000e+00 
2.626207016044e+01 1.000000000000e+00 
2.627106930483e+01 1.000000000000e+00 
2.628006844921e+01 1.000000000000e+00 
2.628906759360e+01 1.000000000000e+00 
2.629806673798e+01 1.000000000000e+00 
2.667739569817e+01 1.000000000000e+00 
2.668539493762e+01 1.000000000000e+00 
2.669339417708e+01 1.000000000000e+00 
2.670139341653e+01 1.000000000000e+00 
2.670939265598e+01 1.000000000000e+00 
2.709272123590e+01 1.000000000000e+00 
2.709972057042e+01 1.000000000000e+00 
2.710671990494e+01 1.000000000000e+00 
2.711371923946e+01 1.000000000000e+00 
2.712071857399e+01 1.000000000000e+00 
2.750804677363e+01 1.000000000000e+00 
2.751404620322e+01 1.000000000000e+00 
2.752004563281e+01 1.000000000000e+00 
2.752604506240e+01 1.000000000000e+00 
2.753204449199e+01 1.000000000000e+00 
2.792337231136e+01 1.000000000000e+00 
2.792837183602e+01 1.000000000000e+00 
2.793337136067e+01 1.000000000000e+00 
2.793837088533e+01 1.000000000000e+00 
2.794337040999e+01 1.000000000000e+00 
2.833869784909e+01 1.000000000000e+00 
2.834269746881e+01 1.000000000000e+00 
2.834669708854e+01 1.000000000000e+00 
2.835069670827e+01 1.000000000000e+00 
2.835469632799e+01 1.000000000000e+00 
2.875402338681e+01 1.000000000000e+00 
2.875702310161e+01 1.000000000000e+00 
2.876002281640e+01 1.000000000000e+00 
2.876302253120e+01 1.000000000000e+00 
2.876602224599e+01 1.000000000000e+00 
2.916934892454e+01 1.000000000000e+00 
2.917134873441e+01 1.000000000000e+00 
2.917334854427e+01 1.000000000000e+00 
2.917534835413e+01 1.000000000000e+00 
2.917734816400e+01 1.000000000000e+00 
2.958467446227e+01 1.000000000000e+00 
2.958567436720e+01 1.000000000000e+00 
2.958667427213e+01 1.000000000000e+00 
2.958767417707e+01 1.000000000000e+00 
2.958867408200e+01 1.000000000000e+00 
3.000000000000e+01 1.000000000000e+00 
3.000000000000e+01 1.000000000000e+00 
3.000000000000e+01 1.000000000000e+00 
3.000000000000e+01 1.000000000000e+00 
3.000000000000e+01 1.000000000000e+00 
3.002500000000e+01 1.000000000000e+00 
3.002500000000e+01 1.000000000000e+00 
3.002500000000e+01 1.000000000000e+00 
3.002500000000e+01 1.000000000000e+00 
3.002500000000e+01 1.000000000000e+00 
3.005000000000e+01 1.000000000000e+00 
3.005000000000e+01 1.000000000000e+00 
3.005000000000e+01 1.000000000000e+00 
3.005000000000e+01 1.000000000000e+00 
3.005000000000e+01 1.000000000000e+00 
3.007500000000e+01 1.000000000000e+00 
3.007500000000e+01 1.000000000000e+00 
3.007500000000e+01 1.000000000000e+00 
3.007500000000e+01 1.000000000000e+00 
3.007500000000e+01 1.000000000000e+00 
3.010000000000e+01 1.000000000000e+00 
3.010000000000e+01 1.000000000000e+00 
3.010000000000e+01 1.000000000000e+00 
3.010000000000e+01 1.000000000000e+00 
3.010000000000e+01 1.000000000000e+00 
3.012500000000e+01 1.000000000000e+00 
3.012500000000e+01 1.000000000000e+00 
3.012500000000e+01 1.000000000000e+00 
3.012500000000e+01 1.000000000000e+00 
3.012500000000e+01 1.000000000000e+00 
3.015000000000e+01 1.000000000000e+00 
3.015000000000e+01 1.000000000000e+00 
3.015000000000e+01 1.000000000000e+00 