 TITLE = "Profiles along polylines"
 VARIABLES = "DIST" "SATURATION1" 
 ZONE T="TIME=0.000000000000e+00"
1.340458659855e+00 1.000000000000e+00 
1.345460371273e+00 1.000000000000e+00 
1.350462082690e+00 1.000000000000e+00 
1.355463794107e+00 1.000000000000e+00 
1.360465505525e+00 1.000000000000e+00 
2.295776704526e+00 1.000000000000e+00 
2.300611692230e+00 1.000000000000e+00 
2.305446679933e+00 1.000000000000e+00 
2.310281667637e+00 1.000000000000e+00 
2.315116655340e+00 1.000000000000e+00 
3.251094749197e+00 1.000000000000e+00 
3.255763013187e+00 1.000000000000e+00 
3.260431277176e+00 1.000000000000e+00 
3.265099541166e+00 1.000000000000e+00 
3.269767805156e+00 1.000000000000e+00 
4.206412793869e+00 1.000000000000e+00 
4.210914334145e+00 1.000000000000e+00 
4.215415874421e+00 1.000000000000e+00 
4.219917414696e+00 1.000000000000e+00 
4.224418954972e+00 1.000000000000e+00 
5.161730838541e+00 1.000000000000e+00 
5.166065655103e+00 1.000000000000e+00 
5.170400471664e+00 1.000000000000e+00 
5.174735288226e+00 1.000000000000e+00 
5.179070104788e+00 1.000000000000e+00 
6.117048883212e+00 1.000000000000e+00 
6.121216976059e+00 1.000000000000e+00 
6.125385068907e+00 1.000000000000e+00 
6.129553161755e+00 1.000000000000e+00 
6.133721254603e+00 1.000000000000e+00 
7.072366927882e+00 1.000000000000e+00 
7.076368297016e+00 1.000000000000e+00 
7.080369666150e+00 1.000000000000e+00 
7.084371035284e+00 1.000000000000e+00 
7.088372404418e+00 1.000000000000e+00 
8.027684972553e+00 1.000000000000e+00 
8.031519617973e+00 1.000000000000e+00 
8.035354263393e+00 1.000000000000e+00 
8.039188908813e+00 1.000000000000e+00 
8.043023554233e+00 1.000000000000e+00 
8.983003017224e+00 1.000000000000e+00 
8.986670938930e+00 1.000000000000e+00 
8.990338860636e+00 1.000000000000e+00 
8.994006782342e+00 1.000000000000e+00 
8.997674704048e+00 1.000000000000e+00 
9.938321061892e+00 1.000000000000e+00 
9.941822259884e+00 1.000000000000e+00 
9.945323457876e+00 1.000000000000e+00 
9.948824655869e+00 1.000000000000e+00 
9.952325853861e+00 1.000000000000e+00 
1.089363910656e+01 1.000000000000e+00 
1.089697358084e+01 1.000000000000e+00 
1.090030805512e+01 1.000000000000e+00 
1.090364252940e+01 1.000000000000e+00 
1.090697700367e+01 1.000000000000e+00 
1.184895715123e+01 1.000000000000e+00 
1.185212490179e+01 1.000000000000e+00 
1.185529265236e+01 1.000000000000e+00 
1.185846040292e+01 1.000000000000e+00 
1.186162815349e+01 1.000000000000e+00 
1.280427519590e+01 1.000000000000e+00 
1.280727622275e+01 1.000000000000e+00 
1.281027724960e+01 1.000000000000e+00 
1.281327827645e+01 1.000000000000e+00 
1.281627930330e+01 1.000000000000e+00 
1.375959324056e+01 1.000000000000e+00 
1.376242754370e+01 1.000000000000e+00 
1.376526184684e+01 1.000000000000e+00 
1.376809614997e+01 1.000000000000e+00 
1.377093045311e+01 1.000000000000e+00 
1.471491128523e+01 1.000000000000e+00 
1.471757886466e+01 1.000000000000e+00 
1.472024644408e+01 1.000000000000e+00 
1.472291402350e+01 1.000000000000e+00 
1.472558160292e+01 1.000000000000e+00 
1.567022932990e+01 1.000000000000e+00 
1.567273018561e+01 1.000000000000e+00 
1.567523104132e+01 1.000000000000e+00 
1.567773189703e+01 1.000000000000e+00 
1.568023275274e+01 1.000000000000e+00 
1.662554737457e+01 1.000000000000e+00 
1.662788150657e+01 1.000000000000e+00 
1.663021563856e+01 1.000000000000e+00 
1.663254977056e+01 1.000000000000e+00 
1.663488390255e+01 1.000000000000e+00 
1.758086541925e+01 1.000000000000e+00 
1.758303282753e+01 1.000000000000e+00 
1.758520023581e+01 1.000000000000e+00 
1.758736764409e+01 1.000000000000e+00 
1.758953505237e+01 1.000000000000e+00 
1.853618346392e+01 1.000000000000e+00 
1.853818414849e+01 1.000000000000e+00 
1.854018483305e+01 1.000000000000e+00 
1.854218551762e+01 1.000000000000e+00 
1.854418620219e+01 1.000000000000e+00 
1.949150150859e+01 1.000000000000e+00 
1.949333546945e+01 1.000000000000e+00 
1.949516943030e+01 1.000000000000e+00 
1.949700339115e+01 1.000000000000e+00 
1.949883735201e+01 1.000000000000e+00 
2.044681955327e+01 1.000000000000e+00 
2.044848679041e+01 1.000000000000e+00 
2.045015402755e+01 1.000000000000e+00 
2.045182126468e+01 1.000000000000e+00 
2.045348850182e+01 1.000000000000e+00 
2.140213759794e+01 1.000000000000e+00 
2.140363811137e+01 1.000000000000e+00 
2.140513862479e+01 1.000000000000e+00 
2.140663913822e+01 1.000000000000e+00 
2.140813965164e+01 1.000000000000e+00 
2.235745564261e+01 1.000000000000e+00 
2.235878943233e+01 1.000000000000e+00 
2.236012322204e+01 1.000000000000e+00 
2.236145701175e+01 1.000000000000e+00 
2.236279080146e+01 1.000000000000e+00 
2.331277368729e+01 1.000000000000e+00 
2.331394075328e+01 1.000000000000e+00 
2.331510781928e+01 1.000000000000e+00 
2.331627488528e+01 1.000000000000e+00 
2.331744195128e+01 1.000000000000e+00 
2.426809173196e+01 1.000000000000e+00 
2.426909207424e+01 1.000000000000e+00 
2.427009241653e+01 1.000000000000e+00 
2.427109275881e+01 1.000000000000e+00 
2.427209310109e+01 1.000000000000e+00 
2.522340977663e+01 1.000000000000e+00 
2.522424339520e+01 1.000000000000e+00 
2.522507701377e+01 1.000000000000e+00 
2.522591063234e+01 1.000000000000e+00 
2.522674425091e+01 1.000000000000e+00 
2.617872782131e+01 1.000000000000e+00 
2.617939471616e+01 1.000000000000e+00 
2.618006161102e+01 1.000000000000e+00 
2.618072850587e+01 1.000000000000e+00 
2.618139540073e+01 1.000000000000e+00 
2.713404586598e+01 1.000000000000e+00 
2.713454603712e+01 1.000000000000e+00 
2.713504620826e+01 1.000000000000e+00 
2.713554637941e+01 1.000000000000e+00 
2.713604655055e+01 1.000000000000e+00 
2.808936391065e+01 1.000000000000e+00 
2.808969735808e+01 1.000000000000e+00 
2.809003080551e+01 1.000000000000e+00 
2.809036425294e+01 1.000000000000e+00 
2.809069770036e+01 1.000000000000e+00 
2.904468195533e+01 1.000000000000e+00 
2.904484867904e+01 1.000000000000e+00 
2.904501540275e+01 1.000000000000e+00 
2.904518212647e+01 1.000000000000e+00 
2.904534885018e+01 1.000000000000e+00 
3.000000000000e+01 1.000000000000e+00 
3.000000000000e+01 1.000000000000e+00 
3.000000000000e+01 1.000000000000e+00 
3.000000000000e+01 1.000000000000e+00 
3.000000000000e+01 1.000000000000e+00 
3.002500000000e+01 9.876207709446e-01 
3.002500000000e+01 9.876207709446e-01 
3.002500000000e+01 9.876207709446e-01 
3.002500000000e+01 9.876207709446e-01 
3.002500000000e+01 9.876207709446e-01 
3.005000000000e+01 9.697756439369e-01 
3.005000000000e+01 9.697756439369e-01 
3.005000000000e+01 9.697756439369e-01 
3.005000000000e+01 9.697756439369e-01 
3.005000000000e+01 9.697756439369e-01 
3.007500000000e+01 9.507134089444e-01 
3.007500000000e+01 9.507134089444e-01 
3.007500000000e+01 9.507134089444e-01 
3.007500000000e+01 9.507134089444e-01 
3.007500000000e+01 9.507134089444e-01 
3.010000000000e+01 9.315621650298e-01 
3.010000000000e+01 9.315621650298e-01 
3.010000000000e+01 9.315621650298e-01 
3.010000000000e+01 9.315621650298e-01 
3.010000000000e+01 9.315621650298e-01 
3.012500000000e+01 9.128758324042e-01 
3.012500000000e+01 9.128758324042e-01 
3.012500000000e+01 9.128758324042e-01 
3.012500000000e+01 9.128758324042e-01 
3.012500000000e+01 9.128758324042e-01 
3.015000000000e+01 8.949248043380e-01 
3.015000000000e+01 8.949248043380e-01 
3.015000000000e+01 8.949248043380e-01 
3.015000000000e+01 8.949248043380e-01 
3.015000000000e+01 8.949248043380e-01 
3.017500000000e+01 8.778290027968e-01 
3.017500000000e+01 8.778290027968e-01 
3.017500000000e+01 8.778290027968e-01 
3.017500000000e+01 8.778290027968e-01 
3.017500000000e+01 8.778290027968e-01 
3.020000000000e+01 8.616255702900e-01 
3.020000000000e+01 8.616255702900e-01 
3.020000000000e+01 8.616255702900e-01 
3.020000000000e+01 8.616255702900e-01 
3.020000000000e+01 8.616255702900e-01 
3.022500000000e+01 8.463059583920e-01 
3.022500000000e+01 8.463059583920e-01 
3.022500000000e+01 8.463059583920e-01 
3.022500000000e+01 8.463059583920e-01 
3.022500000000e+01 8.463059583920e-01 
3.025000000000e+01 8.318370344398e-01 
3.025000000000e+01 8.318370344398e-01 
3.025000000000e+01 8.318370344398e-01 
3.025000000000e+01 8.318370344398e-01 
3.025000000000e+01 8.318370344398e-01 
3.027500000000e+01 8.181733156316e-01 
3.027500000000e+01 8.181733156316e-01 
3.027500000000e+01 8.181733156316e-01 
3.027500000000e+01 8.181733156316e-01 
3.027500000000e+01 8.181733156316e-01 
3.030000000000e+01 8.052640970350e-01 
3.030000000000e+01 8.052640970350e-01 
3.030000000000e+01 8.052640970350e-01 
3.030000000000e+01 8.052640970350e-01 
3.030000000000e+01 8.052640970350e-01 
3.032500000000e+01 7.930575753856e-01 
3.032500000000e+01 7.930575753856e-01 
3.032500000000e+01 7.930575753856e-01 
3.032500000000e+01 7.930575753856e-01 
3.032500000000e+01 7.930575753856e-01 
3.035000000000e+01 7.815031815402e-01 
3.035000000000e+01 7.815031815402e-01 
3.035000000000e+01 7.815031815402e-01 
3.035000000000e+01 7.815031815402e-01 
3.035000000000e+01 7.815031815402e-01 
3.037500000000e+01 7.705528376764e-01 
3.037500000000e+01 7.705528376764e-01 
3.037500000000e+01 7.705528376764e-01 
3.037500000000e+01 7.705528376764e-01 
3.037500000000e+01 7.705528376764e-01 
3.040000000000e+01 7.601615689674e-01 
3.040000000000e+01 7.601615689674e-01 
3.040000000000e+01 7.601615689674e-01 
3.040000000000e+01 7.601615689674e-01 
3.040000000000e+01 7.601615689674e-01 
3.042500000000e+01 7.502877306002e-01 
3.042500000000e+01 7.502877306002e-01 
3.042500000000e+01 7.502877306002e-01 
3.042500000000e+01 7.502877306002e-01 
3.042500000000e+01 7.502877306002e-01 
3.045000000000e+01 7.408930096824e-01 
3.045000000000e+01 7.408930096824e-01 
3.045000000000e+01 7.408930096824e-01 
3.045000000000e+01 7.408930096824e-01 
3.045000000000e+01 7.408930096824e-01 
3.047500000000e+01 7.319422999608e-01 
3.047500000000e+01 7.319422999608e-01 
3.047500000000e+01 7.319422999608e-01 
3.047500000000e+01 7.319422999608e-01 
3.047500000000e+01 7.319422999608e-01 
3.050000000000e+01 7.234035093991e-01 
3.050000000000e+01 7.234035093991e-01 
3.050000000000e+01 7.234035093991e-01 
3.050000000000e+01 7.234035093991e-01 
3.050000000000e+01 7.234035093991e-01 
3.052500000000e+01 7.152473371957e-01 
3.052500000000e+01 7.152473371957e-01 
3.052500000000e+01 7.152473371957e-01 
3.052500000000e+01 7.152473371957e-01 
3.052500000000e+01 7.152473371957e-01 
3.055000000000e+01 7.074470422112e-01 
3.055000000000e+01 7.074470422112e-01 
3.055000000000e+01 7.074470422112e-01 
3.055000000000e+01 7.074470422112e-01 
3.055000000000e+01 7.074470422112e-01 
3.057500000000e+01 6.999782156504e-01 
3.057500000000e+01 6.999782156504e-01 
3.057500000000e+01 6.999782156504e-01 
3.057500000000e+01 6.999782156504e-01 
3.057500000000e+01 6.999782156504e-01 
3.060000000000e+01 6.928185651596e-01 
3.060000000000e+01 6.928185651596e-01 
3.060000000000e+01 6.928185651596e-01 
3.060000000000e+01 6.928185651596e-01 
3.060000000000e+01 6.928185651596e-01 
3.062500000000e+01 6.859477139679e-01 
3.062500000000e+01 6.859477139679e-01 
3.062500000000e+01 6.859477139679e-01 
3.062500000000e+01 6.859477139679e-01 
3.062500000000e+01 6.859477139679e-01 
3.065000000000e+01 6.793470165436e-01 
3.065000000000e+01 6.793470165436e-01 
3.065000000000e+01 6.793470165436e-01 
3.065000000000e+01 6.793470165436e-01 
3.065000000000e+01 6.793470165436e-01 
3.067500000000e+01 6.729993909360e-01 
3.067500000000e+01 6.729993909360e-01 
3.067500000000e+01 6.729993909360e-01 
3.067500000000e+01 6.729993909360e-01 
3.067500000000e+01 6.729993909360e-01 
3.070000000000e+01 6.668891672206e-01 
3.070000000000e+01 6.668891672206e-01 
3.070000000000e+01 6.668891672206e-01 
3.070000000000e+01 6.668891672206e-01 
3.070000000000e+01 6.668891672206e-01 
3.072500000000e+01 6.610019510587e-01 
3.072500000000e+01 6.610019510587e-01 
3.072500000000e+01 6.610019510587e-01 
3.072500000000e+01 6.610019510587e-01 
3.072500000000e+01 6.610019510587e-01 
3.075000000000e+01 6.553245011865e-01 
3.075000000000e+01 6.553245011865e-01 
3.075000000000e+01 6.553245011865e-01 
3.075000000000e+01 6.553245011865e-01 
3.075000000000e+01 6.553245011865e-01 
3.077500000000e+01 6.498446195878e-01 
3.077500000000e+01 6.498446195878e-01 
3.077500000000e+01 6.498446195878e-01 
3.077500000000e+01 6.498446195878e-01 
3.077500000000e+01 6.498446195878e-01 
3.080000000000e+01 6.445510531188e-01 
3.080000000000e+01 6.445510531188e-01 
3.080000000000e+01 6.445510531188e-01 
3.080000000000e+01 6.445510531188e-01 
3.080000000000e+01 6.445510531188e-01 
3.082500000000e+01 6.394334054150e-01 
3.082500000000e+01 6.394334054150e-01 
3.082500000000e+01 6.394334054150e-01 
3.082500000000e+01 6.394334054150e-01 
3.082500000000e+01 6.394334054150e-01 
3.085000000000e+01 6.344820579917e-01 
3.085000000000e+01 6.344820579917e-01 
3.085000000000e+01 6.344820579917e-01 
3.085000000000e+01 6.344820579917e-01 
3.085000000000e+01 6.344820579917e-01 
3.087500000000e+01 6.296880995462e-01 
3.087500000000e+01 6.296880995462e-01 
3.087500000000e+01 6.296880995462e-01 
3.087500000000e+01 6.296880995462e-01 
3.087500000000e+01 6.296880995462e-01 
3.090000000000e+01 6.250432625624e-01 
3.090000000000e+01 6.250432625624e-01 
3.090000000000e+01 6.250432625624e-01 
3.090000000000e+01 6.250432625624e-01 
3.090000000000e+01 6.250432625624e-01 
3.092500000000e+01 6.205398664126e-01 
3.092500000000e+01 6.205398664126e-01 
3.092500000000e+01 6.205398664126e-01 
3.092500000000e+01 6.205398664126e-01 
3.092500000000e+01 6.205398664126e-01 
3.095000000000e+01 6.161707662369e-01 
3.095000000000e+01 6.161707662369e-01 
3.095000000000e+01 6.161707662369e-01 
3.095000000000e+01 6.161707662369e-01 
3.095000000000e+01 6.161707662369e-01 
3.097500000000e+01 6.119293069613e-01 
3.097500000000e+01 6.119293069613e-01 
3.097500000000e+01 6.119293069613e-01 
3.097500000000e+01 6.119293069613e-01 
3.097500000000e+01 6.119293069613e-01 
3.100000000000e+01 6.078092818871e-01 
3.100000000000e+01 6.078092818871e-01 
3.100000000000e+01 6.078092818871e-01 
3.100000000000e+01 6.078092818871e-01 
3.100000000000e+01 6.078092818871e-01 
3.102500000000e+01 6.038048953494e-01 
3.102500000000e+01 6.038048953494e-01 
3.102500000000e+01 6.038048953494e-01 
3.102500000000e+01 6.038048953494e-01 
3.102500000000e+01 6.038048953494e-01 
3.105000000000e+01 5.999107290013e-01 
3.105000000000e+01 5.999107290013e-01 
3.105000000000e+01 5.999107290013e-01 
3.105000000000e+01 5.999107290013e-01 
3.105000000000e+01 5.999107290013e-01 
3.107500000000e+01 5.961217113309e-01 
3.107500000000e+01 5.961217113309e-01 
3.107500000000e+01 5.961217113309e-01 
3.107500000000e+01 5.961217113309e-01 
3.107500000000e+01 5.961217113309e-01 
3.110000000000e+01 5.924330900627e-01 
3.110000000000e+01 5.924330900627e-01 
3.110000000000e+01 5.924330900627e-01 
3.110000000000e+01 5.924330900627e-01 
3.110000000000e+01 5.924330900627e-01 
3.112500000000e+01 5.888404071392e-01 
3.112500000000e+01 5.888404071392e-01 
3.112500000000e+01 5.888404071392e-01 
3.112500000000e+01 5.888404071392e-01 
3.112500000000e+01 5.888404071392e-01 
3.115000000000e+01 5.853394760078e-01 
3.115000000000e+01 5.853394760078e-01 
3.115000000000e+01 5.853394760078e-01 
3.115000000000e+01 5.853394760078e-01 
3.115000000000e+01 5.853394760078e-01 
3.117500000000e+01 5.819263609758e-01 
3.117500000000e+01 5.819263609758e-01 
3.117500000000e+01 5.819263609758e-01 
3.117500000000e+01 5.819263609758e-01 
3.117500000000e+01 5.819263609758e-01 
3.120000000000e+01 5.785973584173e-01 
3.120000000000e+01 5.785973584173e-01 
3.120000000000e+01 5.785973584173e-01 
3.120000000000e+01 5.785973584173e-01 
3.120000000000e+01 5.785973584173e-01 
3.122500000000e+01 5.753489796460e-01 
3.122500000000e+01 5.753489796460e-01 
3.122500000000e+01 5.753489796460e-01 
3.122500000000e+01 5.753489796460e-01 
3.122500000000e+01 5.753489796460e-01 
3.125000000000e+01 5.721779352840e-01 
3.125000000000e+01 5.721779352840e-01 
3.125000000000e+01 5.721779352840e-01 
3.125000000000e+01 5.721779352840e-01 
3.125000000000e+01 5.721779352840e-01 
3.127500000000e+01 5.690811209785e-01 
3.127500000000e+01 5.690811209785e-01 
3.127500000000e+01 5.690811209785e-01 
3.127500000000e+01 5.690811209785e-01 
3.127500000000e+01 5.690811209785e-01 
3.130000000000e+01 5.660556043336e-01 
3.130000000000e+01 5.660556043336e-01 
3.130000000000e+01 5.660556043336e-01 
3.130000000000e+01 5.660556043336e-01 
3.130000000000e+01 5.660556043336e-01 
3.132500000000e+01 5.630986129391e-01 
3.132500000000e+01 5.630986129391e-01 
3.132500000000e+01 5.630986129391e-01 
3.132500000000e+01 5.630986129391e-01 
3.132500000000e+01 5.630986129391e-01 
3.135000000000e+01 5.602075233904e-01 
3.135000000000e+01 5.602075233904e-01 
3.135000000000e+01 5.602075233904e-01 
3.135000000000e+01 5.602075233904e-01 
3.135000000000e+01 5.602075233904e-01 
3.137500000000e+01 5.573798512060e-01 
3.137500000000e+01 5.573798512060e-01 
3.137500000000e+01 5.573798512060e-01 
3.137500000000e+01 5.573798512060e-01 
3.137500000000e+01 5.573798512060e-01 
3.140000000000e+01 5.546132415581e-01 
3.140000000000e+01 5.546132415581e-01 
3.140000000000e+01 5.546132415581e-01 
3.140000000000e+01 5.546132415581e-01 
3.140000000000e+01 5.546132415581e-01 
3.142500000000e+01 5.519054607414e-01 
3.142500000000e+01 5.519054607414e-01 
3.142500000000e+01 5.519054607414e-01 
3.142500000000e+01 5.519054607414e-01 
3.142500000000e+01 5.519054607414e-01 
3.145000000000e+01 5.492543883110e-01 
3.145000000000e+01 5.492543883110e-01 
3.145000000000e+01 5.492543883110e-01 
3.145000000000e+01 5.492543883110e-01 
3.145000000000e+01 5.492543883110e-01 
3.147500000000e+01 5.466580098318e-01 
3.147500000000e+01 5.466580098318e-01 
3.147500000000e+01 5.466580098318e-01 
3.147500000000e+01 5.466580098318e-01 
3.147500000000e+01 5.466580098318e-01 
3.150000000000e+01 5.441144101810e-01 
3.150000000000e+01 5.441144101810e-01 
3.150000000000e+01 5.441144101810e-01 
3.150000000000e+01 5.441144101810e-01 
3.150000000000e+01 5.441144101810e-01 
3.152500000000e+01 5.416217673588e-01 
3.152500000000e+01 5.416217673588e-01 
3.152500000000e+01 5.416217673588e-01 
3.152500000000e+01 5.416217673588e-01 
3.152500000000e+01 5.416217673588e-01 
3.155000000000e+01 5.391783467591e-01 
3.155000000000e+01 5.391783467591e-01 
3.155000000000e+01 5.391783467591e-01 
3.155000000000e+01 5.391783467591e-01 
3.155000000000e+01 5.391783467591e-01 
3.157500000000e+01 5.367824958643e-01 
3.157500000000e+01 5.367824958643e-01 
3.157500000000e+01 5.367824958643e-01 
3.157500000000e+01 5.367824958643e-01 
3.157500000000e+01 5.367824958643e-01 
3.160000000000e+01 5.344326393247e-01 
3.160000000000e+01 5.344326393247e-01 
3.160000000000e+01 5.344326393247e-01 
3.160000000000e+01 5.344326393247e-01 
3.160000000000e+01 5.344326393247e-01 
3.162500000000e+01 5.321272743928e-01 
3.162500000000e+01 5.321272743928e-01 
3.162500000000e+01 5.321272743928e-01 
3.162500000000e+01 5.321272743928e-01 
3.162500000000e+01 5.321272743928e-01 
3.165000000000e+01 5.298649666811e-01 
3.165000000000e+01 5.298649666811e-01 
3.165000000000e+01 5.298649666811e-01 
3.165000000000e+01 5.298649666811e-01 
3.165000000000e+01 5.298649666811e-01 
3.167500000000e+01 5.276443462180e-01 
3.167500000000e+01 5.276443462180e-01 
3.167500000000e+01 5.276443462180e-01 
3.167500000000e+01 5.276443462180e-01 
3.167500000000e+01 5.276443462180e-01 
3.170000000000e+01 5.254641037767e-01 
3.170000000000e+01 5.254641037767e-01 
3.170000000000e+01 5.254641037767e-01 
3.170000000000e+01 5.254641037767e-01 
3.170000000000e+01 5.254641037767e-01 
3.172500000000e+01 5.233229874560e-01 
3.172500000000e+01 5.233229874560e-01 
3.172500000000e+01 5.233229874560e-01 
3.172500000000e+01 5.233229874560e-01 
3.172500000000e+01 5.233229874560e-01 
3.175000000000e+01 5.212197994921e-01 
3.175000000000e+01 5.212197994921e-01 
3.175000000000e+01 5.212197994921e-01 
3.175000000000e+01 5.212197994921e-01 
3.175000000000e+01 5.212197994921e-01 
3.177500000000e+01 5.191533932842e-01 
3.177500000000e+01 5.191533932842e-01 
3.177500000000e+01 5.191533932842e-01 
3.177500000000e+01 5.191533932842e-01 
3.177500000000e+01 5.191533932842e-01 
3.180000000000e+01 5.171226706164e-01 
3.180000000000e+01 5.171226706164e-01 
3.180000000000e+01 5.171226706164e-01 
3.180000000000e+01 5.171226706164e-01 
3.180000000000e+01 5.171226706164e-01 
3.182500000000e+01 5.151265790614e-01 
3.182500000000e+01 5.151265790614e-01 
3.182500000000e+01 5.151265790614e-01 
3.182500000000e+01 5.151265790614e-01 
3.182500000000e+01 5.151265790614e-01 
3.185000000000e+01 5.131641095520e-01 
3.185000000000e+01 5.131641095520e-01 
3.185000000000e+01 5.131641095520e-01 
3.185000000000e+01 5.131641095520e-01 
3.185000000000e+01 5.131641095520e-01 
3.187500000000e+01 5.112342941078e-01 
3.187500000000e+01 5.112342941078e-01 
3.187500000000e+01 5.112342941078e-01 
3.187500000000e+01 5.112342941078e-01 
3.187500000000e+01 5.112342941078e-01 
3.190000000000e+01 5.093362037054e-01 
3.190000000000e+01 5.093362037054e-01 
3.190000000000e+01 5.093362037054e-01 
3.190000000000e+01 5.093362037054e-01 
3.190000000000e+01 5.093362037054e-01 
3.192500000000e+01 5.074689462822e-01 
3.192500000000e+01 5.074689462822e-01 
3.192500000000e+01 5.074689462822e-01 
3.192500000000e+01 5.074689462822e-01 
3.192500000000e+01 5.074689462822e-01 
3.195000000000e+01 5.056316648631e-01 
3.195000000000e+01 5.056316648631e-01 
3.195000000000e+01 5.056316648631e-01 
3.195000000000e+01 5.056316648631e-01 
3.195000000000e+01 5.056316648631e-01 
3.197500000000e+01 5.038235358020e-01 
3.197500000000e+01 5.038235358020e-01 
3.197500000000e+01 5.038235358020e-01 
3.197500000000e+01 5.038235358020e-01 
3.197500000000e+01 5.038235358020e-01 
3.200000000000e+01 5.014082672413e-01 
3.200000000000e+01 5.014108249331e-01 
3.200000000000e+01 5.014121023607e-01 
3.200000000000e+01 5.014095465597e-01 
3.200000000000e+01 5.014133788418e-01 
3.286809173197e+01 4.526530734899e-01 
3.286909207425e+01 4.526070523463e-01 
3.287009241654e+01 4.525610510105e-01 
3.287109275882e+01 4.525150694683e-01 
3.287209310110e+01 4.524691077052e-01 
3.373618346394e+01 4.203391337320e-01 
3.373818414851e+01 4.202750118355e-01 
3.374018483308e+01 4.202109343971e-01 
3.374218551764e+01 4.201469013637e-01 
3.374418620221e+01 4.200829126818e-01 
3.460427519591e+01 3.964279465039e-01 
3.460727622276e+01 3.963549909127e-01 
3.461027724961e+01 3.962820973958e-01 
3.461327827646e+01 3.962092658614e-01 
3.461627930331e+01 3.961364962178e-01 
3.547236692788e+01 3.777347945789e-01 
3.547636829702e+01 3.776573185102e-01 
3.548036966615e+01 3.775799166881e-01 
3.548437103529e+01 3.775025889888e-01 
3.548837240442e+01 3.774253352886e-01 
3.634045865986e+01 3.625397795337e-01 
3.634546037127e+01 3.624600025767e-01 
3.635046208269e+01 3.623803083209e-01 
3.635546379411e+01 3.623006966168e-01 
3.636046550552e+01 3.622211673153e-01 
 TITLE = "Profiles along polylines"
 VARIABLES = "DIST" "SATURATION1" 
 ZONE T="TIME=1.797693134862e+308"
1.340458659855e+00 1.000000000000e+00 
1.345460371273e+00 1.000000000000e+00 
1.350462082690e+00 1.000000000000e+00 
1.355463794107e+00 1.000000000000e+00 
1.360465505525e+00 1.000000000000e+00 
2.295776704526e+00 1.000000000000e+00 
2.300611692230e+00 1.000000000000e+00 
2.305446679933e+00 1.000000000000e+00 
2.310281667637e+00 1.000000000000e+00 
2.315116655340e+00 1.000000000000e+00 
3.251094749197e+00 1.000000000000e+00 
3.255763013187e+00 1.000000000000e+00 
3.260431277176e+00 1.000000000000e+00 
3.265099541166e+00 1.000000000000e+00 
3.269767805156e+00 1.000000000000e+00 
4.206412793869e+00 1.000000000000e+00 
4.210914334145e+00 1.000000000000e+00 
4.215415874421e+00 1.000000000000e+00 
4.219917414696e+00 1.000000000000e+00 
4.224418954972e+00 1.000000000000e+00 
5.161730838541e+00 1.000000000000e+00 
5.166065655103e+00 1.000000000000e+00 
5.170400471664e+00 1.000000000000e+00 
5.174735288226e+00 1.000000000000e+00 
5.179070104788e+00 1.000000000000e+00 
6.117048883212e+00 1.000000000000e+00 
6.121216976059e+00 1.000000000000e+00 
6.125385068907e+00 1.000000000000e+00 
6.129553161755e+00 1.000000000000e+00 
6.133721254603e+00 1.000000000000e+00 
7.072366927882e+00 1.000000000000e+00 
7.076368297016e+00 1.000000000000e+00 
7.080369666150e+00 1.000000000000e+00 
7.084371035284e+00 1.000000000000e+00 
7.088372404418e+00 1.000000000000e+00 
8.027684972553e+00 1.000000000000e+00 
8.031519617973e+00 1.000000000000e+00 
8.035354263393e+00 1.000000000000e+00 
8.039188908813e+00 1.000000000000e+00 
8.043023554233e+00 1.000000000000e+00 
8.983003017224e+00 1.000000000000e+00 
8.986670938930e+00 1.000000000000e+00 
8.990338860636e+00 1.000000000000e+00 
8.994006782342e+00 1.000000000000e+00 
8.997674704048e+00 1.000000000000e+00 
9.938321061892e+00 1.000000000000e+00 
9.941822259884e+00 1.000000000000e+00 
9.945323457876e+00 1.000000000000e+00 
9.948824655869e+00 1.000000000000e+00 
9.952325853861e+00 1.000000000000e+00 
1.089363910656e+01 1.000000000000e+00 
1.089697358084e+01 1.000000000000e+00 
1.090030805512e+01 1.000000000000e+00 
1.090364252940e+01 1.000000000000e+00 
1.090697700367e+01 1.000000000000e+00 
1.184895715123e+01 1.000000000000e+00 
1.185212490179e+01 1.000000000000e+00 
1.185529265236e+01 1.000000000000e+00 
1.185846040292e+01 1.000000000000e+00 
1.186162815349e+01 1.000000000000e+00 
1.280427519590e+01 1.000000000000e+00 
1.280727622275e+01 1.000000000000e+00 
1.281027724960e+01 1.000000000000e+00 
1.281327827645e+01 1.000000000000e+00 
1.281627930330e+01 1.000000000000e+00 
1.375959324056e+01 1.000000000000e+00 
1.376242754370e+01 1.000000000000e+00 
1.376526184684e+01 1.000000000000e+00 
1.376809614997e+01 1.000000000000e+00 
1.377093045311e+01 1.000000000000e+00 
1.471491128523e+01 1.000000000000e+00 
1.471757886466e+01 1.000000000000e+00 
1.472024644408e+01 1.000000000000e+00 
1.472291402350e+01 1.000000000000e+00 
1.472558160292e+01 1.000000000000e+00 
1.567022932990e+01 1.000000000000e+00 
1.567273018561e+01 1.000000000000e+00 
1.567523104132e+01 1.000000000000e+00 
1.567773189703e+01 1.000000000000e+00 
1.568023275274e+01 1.000000000000e+00 
1.662554737457e+01 1.000000000000e+00 
1.662788150657e+01 1.000000000000e+00 
1.663021563856e+01 1.000000000000e+00 
1.663254977056e+01 1.000000000000e+00 
1.663488390255e+01 1.000000000000e+00 
1.758086541925e+01 1.000000000000e+00 
1.758303282753e+01 1.000000000000e+00 
1.758520023581e+01 1.000000000000e+00 
1.758736764409e+01 1.000000000000e+00 
1.758953505237e+01 1.000000000000e+00 
1.853618346392e+01 1.000000000000e+00 
1.853818414849e+01 1.000000000000e+00 
1.854018483305e+01 1.000000000000e+00 
1.854218551762e+01 1.000000000000e+00 
1.854418620219e+01 1.000000000000e+00 
1.949150150859e+01 1.000000000000e+00 
1.949333546945e+01 1.000000000000e+00 
1.949516943030e+01 1.000000000000e+00 
1.949700339115e+01 1.000000000000e+00 
1.949883735201e+01 1.000000000000e+00 
2.044681955327e+01 1.000000000000e+00 
2.044848679041e+01 1.000000000000e+00 
2.045015402755e+01 1.000000000000e+00 
2.045182126468e+01 1.000000000000e+00 
2.045348850182e+01 1.000000000000e+00 
2.140213759794e+01 1.000000000000e+00 
2.140363811137e+01 1.000000000000e+00 
2.140513862479e+01 1.000000000000e+00 
2.140663913822e+01 1.000000000000e+00 
2.140813965164e+01 1.000000000000e+00 
2.235745564261e+01 1.000000000000e+00 
2.235878943233e+01 1.000000000000e+00 
2.236012322204e+01 1.000000000000e+00 
2.236145701175e+01 1.000000000000e+00 
2.236279080146e+01 1.000000000000e+00 
2.331277368729e+01 1.000000000000e+00 
2.331394075328e+01 1.000000000000e+00 
2.331510781928e+01 1.000000000000e+00 
2.331627488528e+01 1.000000000000e+00 
2.331744195128e+01 1.000000000000e+00 
2.426809173196e+01 1.000000000000e+00 
2.426909207424e+01 1.000000000000e+00 
2.427009241653e+01 1.000000000000e+00 
2.427109275881e+01 1.000000000000e+00 
2.427209310109e+01 1.000000000000e+00 
2.522340977663e+01 1.000000000000e+00 
2.522424339520e+01 1.000000000000e+00 
2.522507701377e+01 1.000000000000e+00 
2.522591063234e+01 1.000000000000e+00 
2.522674425091e+01 1.000000000000e+00 
2.617872782131e+01 1.000000000000e+00 
2.617939471616e+01 1.000000000000e+00 
2.618006161102e+01 1.000000000000e+00 
2.618072850587e+01 1.000000000000e+00 
2.618139540073e+01 1.000000000000e+00 
2.713404586598e+01 1.000000000000e+00 
2.713454603712e+01 1.000000000000e+00 
2.713504620826e+01 1.000000000000e+00 
2.713554637941e+01 1.000000000000e+00 
2.713604655055e+01 1.000000000000e+00 
2.808936391065e+01 1.000000000000e+00 
2.808969735808e+01 1.000000000000e+00 
2.809003080551e+01 1.000000000000e+00 
2.809036425294e+01 1.000000000000e+00 
2.809069770036e+01 1.000000000000e+00 
2.904468195533e+01 1.000000000000e+00 
2.904484867904e+01 1.000000000000e+00 
2.904501540275e+01 1.000000000000e+00 
2.904518212647e+01 1.000000000000e+00 
2.904534885018e+01 1.000000000000e+00 
3.000000000000e+01 1.000000000000e+00 
3.000000000000e+01 1.000000000000e+00 
3.000000000000e+01 1.000000000000e+00 
3.000000000000e+01 1.000000000000e+00 
3.000000000000e+01 1.000000000000e+00 
3.002500000000e+01 1.000000000000e+00 
3.002500000000e+01 1.000000000000e+00 
3.002500000000e+01 1.000000000000e+00 
3.002500000000e+01 1.000000000000e+00 
3.002500000000e+01 1.000000000000e+00 
3.005000000000e+01 1.000000000000e+00 
3.005000000000e+01 1.000000000000e+00 
3.005000000000e+01 1.000000000000e+00 
3.005000000000e+01 1.000000000000e+00 
3.005000000000e+01 1.000000000000e+00 
3.007500000000e+01 1.000000000000e+00 
3.007500000000e+01 1.000000000000e+00 
3.007500000000e+01 1.000000000000e+00 
3.007500000000e+01 1.000000000000e+00 
3.007500000000e+01 1.000000000000e+00 
3.010000000000e+01 1.000000000000e+00 
3.010000000000e+01 1.000000000000e+00 
3.010000000000e+01 1.000000000000e+00 
3.010000000000e+01 1.000000000000e+00 
3.010000000000e+01 1.000000000000e+00 
3.012500000000e+01 1.000000000000e+00 
3.012500000000e+01 1.000000000000e+00 
3.012500000000e+01 1.000000000000e+00 
3.012500000000e+01 1.000000000000e+00 
3.012500000000e+01 1.000000000000e+00 
3.015000000000e+01 1.000000000000e+00 
3.015000000000e+01 1.000000000000e+00 
3.015000000000e+01 1.000000000000e+00 