 TITLE = "Profiles along polylines"
 VARIABLES = "DIST" "SATURATION1" 
 ZONE T="TIME=0.000000000000e+00"
1.904009126562e+01 1.000000000000e+00 
1.907008841357e+01 1.000000000000e+00 
1.910008556152e+01 1.000000000000e+00 
1.913008270947e+01 1.000000000000e+00 
1.916007985742e+01 1.000000000000e+00 
1.940542155676e+01 1.000000000000e+00 
1.943441879978e+01 1.000000000000e+00 
1.946341604280e+01 1.000000000000e+00 
1.949241328582e+01 1.000000000000e+00 
1.952141052884e+01 1.000000000000e+00 
1.977075184791e+01 1.000000000000e+00 
1.979874918600e+01 1.000000000000e+00 
1.982674652408e+01 1.000000000000e+00 
1.985474386217e+01 1.000000000000e+00 
1.988274120026e+01 1.000000000000e+00 
2.013608213906e+01 1.000000000000e+00 
2.016307957221e+01 1.000000000000e+00 
2.019007700537e+01 1.000000000000e+00 
2.021707443852e+01 1.000000000000e+00 
2.024407187167e+01 1.000000000000e+00 
2.050141243020e+01 1.000000000000e+00 
2.052740995843e+01 1.000000000000e+00 
2.055340748665e+01 1.000000000000e+00 
2.057940501487e+01 1.000000000000e+00 
2.060540254309e+01 1.000000000000e+00 
2.086674272135e+01 1.000000000000e+00 
2.089174034464e+01 1.000000000000e+00 
2.091673796793e+01 1.000000000000e+00 
2.094173559122e+01 1.000000000000e+00 
2.096673321451e+01 1.000000000000e+00 
2.123207301249e+01 1.000000000000e+00 
2.125607073085e+01 1.000000000000e+00 
2.128006844921e+01 1.000000000000e+00 
2.130406616757e+01 1.000000000000e+00 
2.132806388593e+01 1.000000000000e+00 
2.159740330364e+01 1.000000000000e+00 
2.162040111707e+01 1.000000000000e+00 
2.164339893050e+01 1.000000000000e+00 
2.166639674392e+01 1.000000000000e+00 
2.168939455735e+01 1.000000000000e+00 
2.196273359479e+01 1.000000000000e+00 
2.198473150328e+01 1.000000000000e+00 
2.200672941178e+01 1.000000000000e+00 
2.202872732028e+01 1.000000000000e+00 
2.205072522877e+01 1.000000000000e+00 
2.232806388593e+01 1.000000000000e+00 
2.234906188950e+01 1.000000000000e+00 
2.237005989306e+01 1.000000000000e+00 
2.239105789663e+01 1.000000000000e+00 
2.241205590019e+01 1.000000000000e+00 
2.269339417708e+01 1.000000000000e+00 
2.271339227571e+01 1.000000000000e+00 
2.273339037434e+01 1.000000000000e+00 
2.275338847298e+01 1.000000000000e+00 
2.277338657161e+01 1.000000000000e+00 
2.305872446822e+01 1.000000000000e+00 
2.307772266193e+01 1.000000000000e+00 
2.309672085563e+01 1.000000000000e+00 
2.311571904933e+01 1.000000000000e+00 
2.313471724303e+01 1.000000000000e+00 
2.342405475937e+01 1.000000000000e+00 
2.344205304814e+01 1.000000000000e+00 
2.346005133691e+01 1.000000000000e+00 
2.347804962568e+01 1.000000000000e+00 
2.349604791445e+01 1.000000000000e+00 
2.378938505052e+01 1.000000000000e+00 
2.380638343435e+01 1.000000000000e+00 
2.382338181819e+01 1.000000000000e+00 
2.384038020203e+01 1.000000000000e+00 
2.385737858587e+01 1.000000000000e+00 
2.415471534166e+01 1.000000000000e+00 
2.417071382057e+01 1.000000000000e+00 
2.418671229948e+01 1.000000000000e+00 
2.420271077838e+01 1.000000000000e+00 
2.421870925729e+01 1.000000000000e+00 
2.452004563281e+01 1.000000000000e+00 
2.453504420678e+01 1.000000000000e+00 
2.455004278076e+01 1.000000000000e+00 
2.456504135473e+01 1.000000000000e+00 
2.458003992871e+01 1.000000000000e+00 
2.488537592395e+01 1.000000000000e+00 
2.489937459300e+01 1.000000000000e+00 
2.491337326204e+01 1.000000000000e+00 
2.492737193108e+01 1.000000000000e+00 
2.494137060013e+01 1.000000000000e+00 
2.525070621510e+01 1.000000000000e+00 
2.526370497921e+01 1.000000000000e+00 
2.527670374332e+01 1.000000000000e+00 
2.528970250743e+01 1.000000000000e+00 
2.530270127155e+01 1.000000000000e+00 
2.561603650625e+01 1.000000000000e+00 
2.562803536543e+01 1.000000000000e+00 
2.564003422461e+01 1.000000000000e+00 
2.565203308379e+01 1.000000000000e+00 
2.566403194297e+01 1.000000000000e+00 
2.598136679739e+01 1.000000000000e+00 
2.599236575164e+01 1.000000000000e+00 
2.600336470589e+01 1.000000000000e+00 
2.601436366014e+01 1.000000000000e+00 
2.602536261439e+01 1.000000000000e+00 
2.634669708854e+01 1.000000000000e+00 
2.635669613786e+01 1.000000000000e+00 
2.636669518717e+01 1.000000000000e+00 
2.637669423649e+01 1.000000000000e+00 
2.638669328580e+01 1.000000000000e+00 
2.671202737968e+01 1.000000000000e+00 
2.672102652407e+01 1.000000000000e+00 
2.673002566845e+01 1.000000000000e+00 
2.673902481284e+01 1.000000000000e+00 
2.674802395722e+01 1.000000000000e+00 
2.707735767083e+01 1.000000000000e+00 
2.708535691028e+01 1.000000000000e+00 
2.709335614974e+01 1.000000000000e+00 
2.710135538919e+01 1.000000000000e+00 
2.710935462864e+01 1.000000000000e+00 
2.744268796198e+01 1.000000000000e+00 
2.744968729650e+01 1.000000000000e+00 
2.745668663102e+01 1.000000000000e+00 
2.746368596554e+01 1.000000000000e+00 
2.747068530006e+01 1.000000000000e+00 
2.780801825312e+01 1.000000000000e+00 
2.781401768271e+01 1.000000000000e+00 
2.782001711230e+01 1.000000000000e+00 
2.782601654189e+01 1.000000000000e+00 
2.783201597148e+01 1.000000000000e+00 
2.817334854427e+01 1.000000000000e+00 
2.817834806893e+01 1.000000000000e+00 
2.818334759359e+01 1.000000000000e+00 
2.818834711824e+01 1.000000000000e+00 
2.819334664290e+01 1.000000000000e+00 
2.853867883542e+01 1.000000000000e+00 
2.854267845514e+01 1.000000000000e+00 
2.854667807487e+01 1.000000000000e+00 
2.855067769460e+01 1.000000000000e+00 
2.855467731432e+01 1.000000000000e+00 
2.890400912656e+01 1.000000000000e+00 
2.890700884136e+01 1.000000000000e+00 
2.891000855615e+01 1.000000000000e+00 
2.891300827095e+01 1.000000000000e+00 
2.891600798574e+01 1.000000000000e+00 
2.926933941771e+01 1.000000000000e+00 
2.927133922757e+01 1.000000000000e+00 
2.927333903743e+01 1.000000000000e+00 
2.927533884730e+01 1.000000000000e+00 
2.927733865716e+01 1.000000000000e+00 
2.963466970885e+01 1.000000000000e+00 
2.963566961379e+01 1.000000000000e+00 
2.963666951872e+01 1.000000000000e+00 
2.963766942365e+01 1.000000000000e+00 
2.963866932858e+01 1.000000000000e+00 
3.000000000000e+01 1.000000000000e+00 
3.000000000000e+01 1.000000000000e+00 
3.000000000000e+01 1.000000000000e+00 
3.000000000000e+01 1.000000000000e+00 
3.000000000000e+01 1.000000000000e+00 
3.002500000000e+01 9.876207709446e-01 
3.002500000000e+01 9.876207709446e-01 
3.002500000000e+01 9.876207709446e-01 
3.002500000000e+01 9.876207709446e-01 
3.002500000000e+01 9.876207709446e-01 
3.005000000000e+01 9.697756439369e-01 
3.005000000000e+01 9.697756439369e-01 
3.005000000000e+01 9.697756439369e-01 
3.005000000000e+01 9.697756439369e-01 
3.005000000000e+01 9.697756439369e-01 
3.007500000000e+01 9.507134089444e-01 
3.007500000000e+01 9.507134089444e-01 
3.007500000000e+01 9.507134089444e-01 
3.007500000000e+01 9.507134089444e-01 
3.007500000000e+01 9.507134089444e-01 
3.010000000000e+01 9.315621650298e-01 
3.010000000000e+01 9.315621650298e-01 
3.010000000000e+01 9.315621650298e-01 
3.010000000000e+01 9.315621650298e-01 
3.010000000000e+01 9.315621650298e-01 
3.012500000000e+01 9.128758324042e-01 
3.012500000000e+01 9.128758324042e-01 
3.012500000000e+01 9.128758324042e-01 
3.012500000000e+01 9.128758324042e-01 
3.012500000000e+01 9.128758324042e-01 
3.015000000000e+01 8.949248043380e-01 
3.015000000000e+01 8.949248043380e-01 
3.015000000000e+01 8.949248043380e-01 
3.015000000000e+01 8.949248043380e-01 
3.015000000000e+01 8.949248043380e-01 
3.017500000000e+01 8.778290027968e-01 
3.017500000000e+01 8.778290027968e-01 
3.017500000000e+01 8.778290027968e-01 
3.017500000000e+01 8.778290027968e-01 
3.017500000000e+01 8.778290027968e-01 
3.020000000000e+01 8.616255702900e-01 
3.020000000000e+01 8.616255702900e-01 
3.020000000000e+01 8.616255702900e-01 
3.020000000000e+01 8.616255702900e-01 
3.020000000000e+01 8.616255702900e-01 
3.022500000000e+01 8.463059583920e-01 
3.022500000000e+01 8.463059583920e-01 
3.022500000000e+01 8.463059583920e-01 
3.022500000000e+01 8.463059583920e-01 
3.022500000000e+01 8.463059583920e-01 
3.025000000000e+01 8.318370344398e-01 
3.025000000000e+01 8.318370344398e-01 
3.025000000000e+01 8.318370344398e-01 
3.025000000000e+01 8.318370344398e-01 
3.025000000000e+01 8.318370344398e-01 
3.027500000000e+01 8.181733156316e-01 
3.027500000000e+01 8.181733156316e-01 
3.027500000000e+01 8.181733156316e-01 
3.027500000000e+01 8.181733156316e-01 
3.027500000000e+01 8.181733156316e-01 
3.030000000000e+01 8.052640970350e-01 
3.030000000000e+01 8.052640970350e-01 
3.030000000000e+01 8.052640970350e-01 
3.030000000000e+01 8.052640970350e-01 
3.030000000000e+01 8.052640970350e-01 
3.032500000000e+01 7.930575753856e-01 
3.032500000000e+01 7.930575753856e-01 
3.032500000000e+01 7.930575753856e-01 
3.032500000000e+01 7.930575753856e-01 
3.032500000000e+01 7.930575753856e-01 
3.035000000000e+01 7.815031815402e-01 
3.035000000000e+01 7.815031815402e-01 
3.035000000000e+01 7.815031815402e-01 
3.035000000000e+01 7.815031815402e-01 
3.035000000000e+01 7.815031815402e-01 
3.037500000000e+01 7.705528376764e-01 
3.037500000000e+01 7.705528376764e-01 
3.037500000000e+01 7.705528376764e-01 
3.037500000000e+01 7.705528376764e-01 
3.037500000000e+01 7.705528376764e-01 
3.040000000000e+01 7.601615689674e-01 
3.040000000000e+01 7.601615689674e-01 
3.040000000000e+01 7.601615689674e-01 
3.040000000000e+01 7.601615689674e-01 
3.040000000000e+01 7.601615689674e-01 
3.042500000000e+01 7.502877306002e-01 
3.042500000000e+01 7.502877306002e-01 
3.042500000000e+01 7.502877306002e-01 
3.042500000000e+01 7.502877306002e-01 
3.042500000000e+01 7.502877306002e-01 
3.045000000000e+01 7.408930096824e-01 
3.045000000000e+01 7.408930096824e-01 
3.045000000000e+01 7.408930096824e-01 
3.045000000000e+01 7.408930096824e-01 
3.045000000000e+01 7.408930096824e-01 
3.047500000000e+01 7.319422999608e-01 
3.047500000000e+01 7.319422999608e-01 
3.047500000000e+01 7.319422999608e-01 
3.047500000000e+01 7.319422999608e-01 
3.047500000000e+01 7.319422999608e-01 
3.050000000000e+01 7.234035093991e-01 
3.050000000000e+01 7.234035093991e-01 
3.050000000000e+01 7.234035093991e-01 
3.050000000000e+01 7.234035093991e-01 
3.050000000000e+01 7.234035093991e-01 
3.052500000000e+01 7.152473371957e-01 
3.052500000000e+01 7.152473371957e-01 
3.052500000000e+01 7.152473371957e-01 
3.052500000000e+01 7.152473371957e-01 
3.052500000000e+01 7.152473371957e-01 
3.055000000000e+01 7.074470422112e-01 
3.055000000000e+01 7.074470422112e-01 
3.055000000000e+01 7.074470422112e-01 
3.055000000000e+01 7.074470422112e-01 
3.055000000000e+01 7.074470422112e-01 
3.057500000000e+01 6.999782156504e-01 
3.057500000000e+01 6.999782156504e-01 
3.057500000000e+01 6.999782156504e-01 
3.057500000000e+01 6.999782156504e-01 
3.057500000000e+01 6.999782156504e-01 
3.060000000000e+01 6.928185651596e-01 
3.060000000000e+01 6.928185651596e-01 
3.060000000000e+01 6.928185651596e-01 
3.060000000000e+01 6.928185651596e-01 
3.060000000000e+01 6.928185651596e-01 
3.062500000000e+01 6.859477139679e-01 
3.062500000000e+01 6.859477139679e-01 
3.062500000000e+01 6.859477139679e-01 
3.062500000000e+01 6.859477139679e-01 
3.062500000000e+01 6.859477139679e-01 
3.065000000000e+01 6.793470165436e-01 
3.065000000000e+01 6.793470165436e-01 
3.065000000000e+01 6.793470165436e-01 
3.065000000000e+01 6.793470165436e-01 
3.065000000000e+01 6.793470165436e-01 
3.067500000000e+01 6.729993909360e-01 
3.067500000000e+01 6.729993909360e-01 
3.067500000000e+01 6.729993909360e-01 
3.067500000000e+01 6.729993909360e-01 
3.067500000000e+01 6.729993909360e-01 
3.070000000000e+01 6.668891672206e-01 
3.070000000000e+01 6.668891672206e-01 
3.070000000000e+01 6.668891672206e-01 
3.070000000000e+01 6.668891672206e-01 
3.070000000000e+01 6.668891672206e-01 
3.072500000000e+01 6.610019510587e-01 
3.072500000000e+01 6.610019510587e-01 
3.072500000000e+01 6.610019510587e-01 
3.072500000000e+01 6.610019510587e-01 
3.072500000000e+01 6.610019510587e-01 
3.075000000000e+01 6.553245011865e-01 
3.075000000000e+01 6.553245011865e-01 
3.075000000000e+01 6.553245011865e-01 
3.075000000000e+01 6.553245011865e-01 
3.075000000000e+01 6.553245011865e-01 
3.077500000000e+01 6.498446195878e-01 
3.077500000000e+01 6.498446195878e-01 
3.077500000000e+01 6.498446195878e-01 
3.077500000000e+01 6.498446195878e-01 
3.077500000000e+01 6.498446195878e-01 
3.080000000000e+01 6.445510531188e-01 
3.080000000000e+01 6.445510531188e-01 
3.080000000000e+01 6.445510531188e-01 
3.080000000000e+01 6.445510531188e-01 
3.080000000000e+01 6.445510531188e-01 
3.082500000000e+01 6.394334054150e-01 
3.082500000000e+01 6.394334054150e-01 
3.082500000000e+01 6.394334054150e-01 
3.082500000000e+01 6.394334054150e-01 
3.082500000000e+01 6.394334054150e-01 
3.085000000000e+01 6.344820579917e-01 
3.085000000000e+01 6.344820579917e-01 
3.085000000000e+01 6.344820579917e-01 
3.085000000000e+01 6.344820579917e-01 
3.085000000000e+01 6.344820579917e-01 
3.087500000000e+01 6.296880995462e-01 
3.087500000000e+01 6.296880995462e-01 
3.087500000000e+01 6.296880995462e-01 
3.087500000000e+01 6.296880995462e-01 
3.087500000000e+01 6.296880995462e-01 
3.090000000000e+01 6.250432625624e-01 
3.090000000000e+01 6.250432625624e-01 
3.090000000000e+01 6.250432625624e-01 
3.090000000000e+01 6.250432625624e-01 
3.090000000000e+01 6.250432625624e-01 
3.092500000000e+01 6.205398664126e-01 
3.092500000000e+01 6.205398664126e-01 
3.092500000000e+01 6.205398664126e-01 
3.092500000000e+01 6.205398664126e-01 
3.092500000000e+01 6.205398664126e-01 
3.095000000000e+01 6.161707662369e-01 
3.095000000000e+01 6.161707662369e-01 
3.095000000000e+01 6.161707662369e-01 
3.095000000000e+01 6.161707662369e-01 
3.095000000000e+01 6.161707662369e-01 
3.097500000000e+01 6.119293069613e-01 
3.097500000000e+01 6.119293069613e-01 
3.097500000000e+01 6.119293069613e-01 
3.097500000000e+01 6.119293069613e-01 
3.097500000000e+01 6.119293069613e-01 
3.100000000000e+01 6.078092818871e-01 
3.100000000000e+01 6.078092818871e-01 
3.100000000000e+01 6.078092818871e-01 
3.100000000000e+01 6.078092818871e-01 
3.100000000000e+01 6.078092818871e-01 
3.102500000000e+01 6.038048953494e-01 
3.102500000000e+01 6.038048953494e-01 
3.102500000000e+01 6.038048953494e-01 
3.102500000000e+01 6.038048953494e-01 
3.102500000000e+01 6.038048953494e-01 
3.105000000000e+01 5.999107290013e-01 
3.105000000000e+01 5.999107290013e-01 
3.105000000000e+01 5.999107290013e-01 
3.105000000000e+01 5.999107290013e-01 
3.105000000000e+01 5.999107290013e-01 
3.107500000000e+01 5.961217113309e-01 
3.107500000000e+01 5.961217113309e-01 
3.107500000000e+01 5.961217113309e-01 
3.107500000000e+01 5.961217113309e-01 
3.107500000000e+01 5.961217113309e-01 
3.110000000000e+01 5.924330900627e-01 
3.110000000000e+01 5.924330900627e-01 
3.110000000000e+01 5.924330900627e-01 
3.110000000000e+01 5.924330900627e-01 
3.110000000000e+01 5.924330900627e-01 
3.112500000000e+01 5.888404071392e-01 
3.112500000000e+01 5.888404071392e-01 
3.112500000000e+01 5.888404071392e-01 
3.112500000000e+01 5.888404071392e-01 
3.112500000000e+01 5.888404071392e-01 
3.115000000000e+01 5.853394760078e-01 
3.115000000000e+01 5.853394760078e-01 
3.115000000000e+01 5.853394760078e-01 
3.115000000000e+01 5.853394760078e-01 
3.115000000000e+01 5.853394760078e-01 
3.117500000000e+01 5.819263609758e-01 
3.117500000000e+01 5.819263609758e-01 
3.117500000000e+01 5.819263609758e-01 
3.117500000000e+01 5.819263609758e-01 
3.117500000000e+01 5.819263609758e-01 
3.120000000000e+01 5.785973584173e-01 
3.120000000000e+01 5.785973584173e-01 
3.120000000000e+01 5.785973584173e-01 
3.120000000000e+01 5.785973584173e-01 
3.120000000000e+01 5.785973584173e-01 
3.122500000000e+01 5.753489796460e-01 
3.122500000000e+01 5.753489796460e-01 
3.122500000000e+01 5.753489796460e-01 
3.122500000000e+01 5.753489796460e-01 
3.122500000000e+01 5.753489796460e-01 
3.125000000000e+01 5.721779352840e-01 
3.125000000000e+01 5.721779352840e-01 
3.125000000000e+01 5.721779352840e-01 
3.125000000000e+01 5.721779352840e-01 
3.125000000000e+01 5.721779352840e-01 
3.127500000000e+01 5.690811209785e-01 
3.127500000000e+01 5.690811209785e-01 
3.127500000000e+01 5.690811209785e-01 
3.127500000000e+01 5.690811209785e-01 
3.127500000000e+01 5.690811209785e-01 
3.130000000000e+01 5.660556043336e-01 
3.130000000000e+01 5.660556043336e-01 
3.130000000000e+01 5.660556043336e-01 
3.130000000000e+01 5.660556043336e-01 
3.130000000000e+01 5.660556043336e-01 
3.132500000000e+01 5.630986129391e-01 
3.132500000000e+01 5.630986129391e-01 
3.132500000000e+01 5.630986129391e-01 
3.132500000000e+01 5.630986129391e-01 
3.132500000000e+01 5.630986129391e-01 
3.135000000000e+01 5.602075233904e-01 
3.135000000000e+01 5.602075233904e-01 
3.135000000000e+01 5.602075233904e-01 
3.135000000000e+01 5.602075233904e-01 
3.135000000000e+01 5.602075233904e-01 
3.137500000000e+01 5.573798512060e-01 
3.137500000000e+01 5.573798512060e-01 
3.137500000000e+01 5.573798512060e-01 
3.137500000000e+01 5.573798512060e-01 
3.137500000000e+01 5.573798512060e-01 
3.140000000000e+01 5.546132415581e-01 
3.140000000000e+01 5.546132415581e-01 
3.140000000000e+01 5.546132415581e-01 
3.140000000000e+01 5.546132415581e-01 
3.140000000000e+01 5.546132415581e-01 
3.142500000000e+01 5.519054607414e-01 
3.142500000000e+01 5.519054607414e-01 
3.142500000000e+01 5.519054607414e-01 
3.142500000000e+01 5.519054607414e-01 
3.142500000000e+01 5.519054607414e-01 
3.145000000000e+01 5.492543883110e-01 
3.145000000000e+01 5.492543883110e-01 
3.145000000000e+01 5.492543883110e-01 
3.145000000000e+01 5.492543883110e-01 
3.145000000000e+01 5.492543883110e-01 
3.147500000000e+01 5.466580098318e-01 
3.147500000000e+01 5.466580098318e-01 
3.147500000000e+01 5.466580098318e-01 
3.147500000000e+01 5.466580098318e-01 
3.147500000000e+01 5.466580098318e-01 
3.150000000000e+01 5.441144101810e-01 
3.150000000000e+01 5.441144101810e-01 
3.150000000000e+01 5.441144101810e-01 
3.150000000000e+01 5.441144101810e-01 
3.150000000000e+01 5.441144101810e-01 
3.152500000000e+01 5.416217673588e-01 
3.152500000000e+01 5.416217673588e-01 
3.152500000000e+01 5.416217673588e-01 
3.152500000000e+01 5.416217673588e-01 
3.152500000000e+01 5.416217673588e-01 
3.155000000000e+01 5.391783467591e-01 
3.155000000000e+01 5.391783467591e-01 
3.155000000000e+01 5.391783467591e-01 
3.155000000000e+01 5.391783467591e-01 
3.155000000000e+01 5.391783467591e-01 
3.157500000000e+01 5.367824958643e-01 
3.157500000000e+01 5.367824958643e-01 
3.157500000000e+01 5.367824958643e-01 
3.157500000000e+01 5.367824958643e-01 
3.157500000000e+01 5.367824958643e-01 
3.160000000000e+01 5.344326393247e-01 
3.160000000000e+01 5.344326393247e-01 
3.160000000000e+01 5.344326393247e-01 
3.160000000000e+01 5.344326393247e-01 
3.160000000000e+01 5.344326393247e-01 
3.162500000000e+01 5.321272743928e-01 
3.162500000000e+01 5.321272743928e-01 
3.162500000000e+01 5.321272743928e-01 
3.162500000000e+01 5.321272743928e-01 
3.162500000000e+01 5.321272743928e-01 
3.165000000000e+01 5.298649666811e-01 
3.165000000000e+01 5.298649666811e-01 
3.165000000000e+01 5.298649666811e-01 
3.165000000000e+01 5.298649666811e-01 
3.165000000000e+01 5.298649666811e-01 
3.167500000000e+01 5.276443462180e-01 
3.167500000000e+01 5.276443462180e-01 
3.167500000000e+01 5.276443462180e-01 
3.167500000000e+01 5.276443462180e-01 
3.167500000000e+01 5.276443462180e-01 
3.170000000000e+01 5.254641037767e-01 
3.170000000000e+01 5.254641037767e-01 
3.170000000000e+01 5.254641037767e-01 
3.170000000000e+01 5.254641037767e-01 
3.170000000000e+01 5.254641037767e-01 
3.172500000000e+01 5.233229874560e-01 
3.172500000000e+01 5.233229874560e-01 
3.172500000000e+01 5.233229874560e-01 
3.172500000000e+01 5.233229874560e-01 
3.172500000000e+01 5.233229874560e-01 
3.175000000000e+01 5.212197994921e-01 
3.175000000000e+01 5.212197994921e-01 
3.175000000000e+01 5.212197994921e-01 
3.175000000000e+01 5.212197994921e-01 
3.175000000000e+01 5.212197994921e-01 
3.177500000000e+01 5.191533932842e-01 
3.177500000000e+01 5.191533932842e-01 
3.177500000000e+01 5.191533932842e-01 
3.177500000000e+01 5.191533932842e-01 
3.177500000000e+01 5.191533932842e-01 
3.180000000000e+01 5.171226706164e-01 
3.180000000000e+01 5.171226706164e-01 
3.180000000000e+01 5.171226706164e-01 
3.180000000000e+01 5.171226706164e-01 
3.180000000000e+01 5.171226706164e-01 
3.182500000000e+01 5.151265790614e-01 
3.182500000000e+01 5.151265790614e-01 
3.182500000000e+01 5.151265790614e-01 
3.182500000000e+01 5.151265790614e-01 
3.182500000000e+01 5.151265790614e-01 
3.185000000000e+01 5.131641095520e-01 
3.185000000000e+01 5.131641095520e-01 
3.185000000000e+01 5.131641095520e-01 
3.185000000000e+01 5.131641095520e-01 
3.185000000000e+01 5.131641095520e-01 
3.187500000000e+01 5.112342941078e-01 
3.187500000000e+01 5.112342941078e-01 
3.187500000000e+01 5.112342941078e-01 
3.187500000000e+01 5.112342941078e-01 
3.187500000000e+01 5.112342941078e-01 
3.190000000000e+01 5.093362037054e-01 
3.190000000000e+01 5.093362037054e-01 
3.190000000000e+01 5.093362037054e-01 
3.190000000000e+01 5.093362037054e-01 
3.190000000000e+01 5.093362037054e-01 
3.192500000000e+01 5.074689462822e-01 
3.192500000000e+01 5.074689462822e-01 
3.192500000000e+01 5.074689462822e-01 
3.192500000000e+01 5.074689462822e-01 
3.192500000000e+01 5.074689462822e-01 
3.195000000000e+01 5.056316648631e-01 
3.195000000000e+01 5.056316648631e-01 
3.195000000000e+01 5.056316648631e-01 
3.195000000000e+01 5.056316648631e-01 
3.195000000000e+01 5.056316648631e-01 
3.197500000000e+01 5.038235358020e-01 
3.197500000000e+01 5.038235358020e-01 
3.197500000000e+01 5.038235358020e-01 
3.197500000000e+01 5.038235358020e-01 
3.197500000000e+01 5.038235358020e-01 
3.200000000000e+01 4.941582732207e-01 
3.200000000000e+01 4.941860967800e-01 
3.200000000000e+01 4.942000072698e-01 
3.200000000000e+01 4.941721854263e-01 
3.200000000000e+01 4.942139168833e-01 
3.640801825312e+01 3.573070145880e-01 
3.641401768271e+01 3.572088200148e-01 
3.642001711230e+01 3.571107466360e-01 
3.642601654189e+01 3.570127941942e-01 
3.643201597148e+01 3.569149624331e-01 
4.081603650625e+01 3.119950185924e-01 
4.082803536543e+01 3.119003465812e-01 
4.084003422461e+01 3.118058140464e-01 
4.085203308379e+01 3.117114206299e-01 
4.086403194297e+01 3.116171659745e-01 
4.522405475937e+01 2.850195803434e-01 
4.524205304814e+01 2.849295417170e-01 
4.526005133691e+01 2.848396443575e-01 
4.527804962568e+01 2.847498878777e-01 
4.529604791445e+01 2.846602718921e-01 
4.963207301250e+01 2.666277221403e-01 
4.965607073085e+01 2.665421121124e-01 
4.968006844921e+01 2.664566410033e-01 
4.970406616757e+01 2.663713084191e-01 
4.972806388593e+01 2.662861139678e-01 
5.404009126562e+01 2.529601414114e-01 
5.407008841357e+01 2.528783997873e-01 
5.410008556152e+01 2.527967936206e-01 
5.413008270947e+01 2.527153225192e-01 
5.416007985742e+01 2.526339860925e-01 
 TITLE = "Profiles along polylines"
 VARIABLES = "DIST" "SATURATION1" 
 ZONE T="TIME=1.797693134862e+308"
1.904009126562e+01 1.000000000000e+00 
1.907008841357e+01 1.000000000000e+00 
1.910008556152e+01 1.000000000000e+00 
1.913008270947e+01 1.000000000000e+00 
1.916007985742e+01 1.000000000000e+00 
1.940542155676e+01 1.000000000000e+00 
1.943441879978e+01 1.000000000000e+00 
1.946341604280e+01 1.000000000000e+00 
1.949241328582e+01 1.000000000000e+00 
1.952141052884e+01 1.000000000000e+00 
1.977075184791e+01 1.000000000000e+00 
1.979874918600e+01 1.000000000000e+00 
1.982674652408e+01 1.000000000000e+00 
1.985474386217e+01 1.000000000000e+00 
1.988274120026e+01 1.000000000000e+00 
2.013608213906e+01 1.000000000000e+00 
2.016307957221e+01 1.000000000000e+00 
2.019007700537e+01 1.000000000000e+00 
2.021707443852e+01 1.000000000000e+00 
2.024407187167e+01 1.000000000000e+00 
2.050141243020e+01 1.000000000000e+00 
2.052740995843e+01 1.000000000000e+00 
2.055340748665e+01 1.000000000000e+00 
2.057940501487e+01 1.000000000000e+00 
2.060540254309e+01 1.000000000000e+00 
2.086674272135e+01 1.000000000000e+00 
2.089174034464e+01 1.000000000000e+00 
2.091673796793e+01 1.000000000000e+00 
2.094173559122e+01 1.000000000000e+00 
2.096673321451e+01 1.000000000000e+00 
2.123207301249e+01 1.000000000000e+00 
2.125607073085e+01 1.000000000000e+00 
2.128006844921e+01 1.000000000000e+00 
2.130406616757e+01 1.000000000000e+00 
2.132806388593e+01 1.000000000000e+00 
2.159740330364e+01 1.000000000000e+00 
2.162040111707e+01 1.000000000000e+00 
2.164339893050e+01 1.000000000000e+00 
2.166639674392e+01 1.000000000000e+00 
2.168939455735e+01 1.000000000000e+00 
2.196273359479e+01 1.000000000000e+00 
2.198473150328e+01 1.000000000000e+00 
2.200672941178e+01 1.000000000000e+00 
2.202872732028e+01 1.000000000000e+00 
2.205072522877e+01 1.000000000000e+00 
2.232806388593e+01 1.000000000000e+00 
2.234906188950e+01 1.000000000000e+00 
2.237005989306e+01 1.000000000000e+00 
2.239105789663e+01 1.000000000000e+00 
2.241205590019e+01 1.000000000000e+00 
2.269339417708e+01 1.000000000000e+00 
2.271339227571e+01 1.000000000000e+00 
2.273339037434e+01 1.000000000000e+00 
2.275338847298e+01 1.000000000000e+00 
2.277338657161e+01 1.000000000000e+00 
2.305872446822e+01 1.000000000000e+00 
2.307772266193e+01 1.000000000000e+00 
2.309672085563e+01 1.000000000000e+00 
2.311571904933e+01 1.000000000000e+00 
2.313471724303e+01 1.000000000000e+00 
2.342405475937e+01 1.000000000000e+00 
2.344205304814e+01 1.000000000000e+00 
2.346005133691e+01 1.000000000000e+00 
2.347804962568e+01 1.000000000000e+00 
2.349604791445e+01 1.000000000000e+00 
2.378938505052e+01 1.000000000000e+00 
2.380638343435e+01 1.000000000000e+00 
2.382338181819e+01 1.000000000000e+00 
2.384038020203e+01 1.000000000000e+00 
2.385737858587e+01 1.000000000000e+00 
2.415471534166e+01 1.000000000000e+00 
2.417071382057e+01 1.000000000000e+00 
2.418671229948e+01 1.000000000000e+00 
2.420271077838e+01 1.000000000000e+00 
2.421870925729e+01 1.000000000000e+00 
2.452004563281e+01 1.000000000000e+00 
2.453504420678e+01 1.000000000000e+00 
2.455004278076e+01 1.000000000000e+00 
2.456504135473e+01 1.000000000000e+00 
2.458003992871e+01 1.000000000000e+00 
2.488537592395e+01 1.000000000000e+00 
2.489937459300e+01 1.000000000000e+00 
2.491337326204e+01 1.000000000000e+00 
2.492737193108e+01 1.000000000000e+00 
2.494137060013e+01 1.000000000000e+00 
2.525070621510e+01 1.000000000000e+00 
2.526370497921e+01 1.000000000000e+00 
2.527670374332e+01 1.000000000000e+00 
2.528970250743e+01 1.000000000000e+00 
2.530270127155e+01 1.000000000000e+00 
2.561603650625e+01 1.000000000000e+00 
2.562803536543e+01 1.000000000000e+00 
2.564003422461e+01 1.000000000000e+00 
2.565203308379e+01 1.000000000000e+00 
2.566403194297e+01 1.000000000000e+00 
2.598136679739e+01 1.000000000000e+00 
2.599236575164e+01 1.000000000000e+00 
2.600336470589e+01 1.000000000000e+00 
2.601436366014e+01 1.000000000000e+00 
2.602536261439e+01 1.000000000000e+00 
2.634669708854e+01 1.000000000000e+00 
2.635669613786e+01 1.000000000000e+00 
2.636669518717e+01 1.000000000000e+00 
2.637669423649e+01 1.000000000000e+00 
2.638669328580e+01 1.000000000000e+00 
2.671202737968e+01 1.000000000000e+00 
2.672102652407e+01 1.000000000000e+00 
2.673002566845e+01 1.000000000000e+00 
2.673902481284e+01 1.000000000000e+00 
2.674802395722e+01 1.000000000000e+00 
2.707735767083e+01 1.000000000000e+00 
2.708535691028e+01 1.000000000000e+00 
2.709335614974e+01 1.000000000000e+00 
2.710135538919e+01 1.000000000000e+00 
2.710935462864e+01 1.000000000000e+00 
2.744268796198e+01 1.000000000000e+00 
2.744968729650e+01 1.000000000000e+00 
2.745668663102e+01 1.000000000000e+00 
2.746368596554e+01 1.000000000000e+00 
2.747068530006e+01 1.000000000000e+00 
2.780801825312e+01 1.000000000000e+00 
2.781401768271e+01 1.000000000000e+00 
2.782001711230e+01 1.000000000000e+00 
2.782601654189e+01 1.000000000000e+00 
2.783201597148e+01 1.000000000000e+00 
2.817334854427e+01 1.000000000000e+00 
2.817834806893e+01 1.000000000000e+00 
2.818334759359e+01 1.000000000000e+00 
2.818834711824e+01 1.000000000000e+00 
2.819334664290e+01 1.000000000000e+00 
2.853867883542e+01 1.000000000000e+00 
2.854267845514e+01 1.000000000000e+00 
2.854667807487e+01 1.000000000000e+00 
2.855067769460e+01 1.000000000000e+00 
2.855467731432e+01 1.000000000000e+00 
2.890400912656e+01 1.000000000000e+00 
2.890700884136e+01 1.000000000000e+00 
2.891000855615e+01 1.000000000000e+00 
2.891300827095e+01 1.000000000000e+00 
2.891600798574e+01 1.000000000000e+00 
2.926933941771e+01 1.000000000000e+00 
2.927133922757e+01 1.000000000000e+00 
2.927333903743e+01 1.000000000000e+00 
2.927533884730e+01 1.000000000000e+00 
2.927733865716e+01 1.000000000000e+00 
2.963466970885e+01 1.000000000000e+00 
2.963566961379e+01 1.000000000000e+00 
2.963666951872e+01 1.000000000000e+00 
2.963766942365e+01 1.000000000000e+00 
2.963866932858e+01 1.000000000000e+00 
3.000000000000e+01 1.000000000000e+00 
3.000000000000e+01 1.000000000000e+00 
3.000000000000e+01 1.000000000000e+00 
3.000000000000e+01 1.000000000000e+00 
3.000000000000e+01 1.000000000000e+00 
3.002500000000e+01 1.000000000000e+00 
3.002500000000e+01 1.000000000000e+00 
3.002500000000e+01 1.000000000000e+00 
3.002500000000e+01 1.000000000000e+00 
3.002500000000e+01 1.000000000000e+00 
3.005000000000e+01 1.000000000000e+00 
3.005000000000e+01 1.000000000000e+00 
3.005000000000e+01 1.000000000000e+00 
3.005000000000e+01 1.000000000000e+00 
3.005000000000e+01 1.000000000000e+00 
3.007500000000e+01 1.000000000000e+00 
3.007500000000e+01 1.000000000000e+00 
3.007500000000e+01 1.000000000000e+00 
3.007500000000e+01 1.000000000000e+00 
3.007500000000e+01 1.000000000000e+00 
3.010000000000e+01 1.000000000000e+00 
3.010000000000e+01 1.000000000000e+00 
3.010000000000e+01 1.000000000000e+00 
3.010000000000e+01 1.000000000000e+00 
3.010000000000e+01 1.000000000000e+00 
3.012500000000e+01 1.000000000000e+00 
3.012500000000e+01 1.000000000000e+00 
3.012500000000e+01 1.000000000000e+00 
3.012500000000e+01 1.000000000000e+00 
3.012500000000e+01 1.000000000000e+00 
3.015000000000e+01 1.000000000000e+00 
3.015000000000e+01 1.000000000000e+00 
3.015000000000e+01 1.000000000000e+00 