 TITLE = "Profiles along polylines"
 VARIABLES = "DIST" "SATURATION1" 
 ZONE T="TIME=0.000000000000e+00"
2.481515375732e+00 1.000000000000e+00 
2.491518423469e+00 1.000000000000e+00 
2.501521471206e+00 1.000000000000e+00 
2.511524518943e+00 1.000000000000e+00 
2.521527566680e+00 1.000000000000e+00 
3.398798196541e+00 1.000000000000e+00 
3.408467809353e+00 1.000000000000e+00 
3.418137422166e+00 1.000000000000e+00 
3.427807034978e+00 1.000000000000e+00 
3.437476647790e+00 1.000000000000e+00 
4.316081017349e+00 1.000000000000e+00 
4.325417195237e+00 1.000000000000e+00 
4.334753373125e+00 1.000000000000e+00 
4.344089551013e+00 1.000000000000e+00 
4.353425728900e+00 1.000000000000e+00 
5.233363838159e+00 1.000000000000e+00 
5.242366581122e+00 1.000000000000e+00 
5.251369324085e+00 1.000000000000e+00 
5.260372067048e+00 1.000000000000e+00 
5.269374810011e+00 1.000000000000e+00 
6.150646658968e+00 1.000000000000e+00 
6.159315967006e+00 1.000000000000e+00 
6.167985275045e+00 1.000000000000e+00 
6.176654583084e+00 1.000000000000e+00 
6.185323891122e+00 1.000000000000e+00 
7.067929479776e+00 1.000000000000e+00 
7.076265352890e+00 1.000000000000e+00 
7.084601226004e+00 1.000000000000e+00 
7.092937099118e+00 1.000000000000e+00 
7.101272972232e+00 1.000000000000e+00 
7.985212300584e+00 1.000000000000e+00 
7.993214738774e+00 1.000000000000e+00 
8.001217176963e+00 1.000000000000e+00 
8.009219615153e+00 1.000000000000e+00 
8.017222053342e+00 1.000000000000e+00 
8.902495121393e+00 1.000000000000e+00 
8.910164124657e+00 1.000000000000e+00 
8.917833127922e+00 1.000000000000e+00 
8.925502131187e+00 1.000000000000e+00 
8.933171134452e+00 1.000000000000e+00 
9.819777942201e+00 1.000000000000e+00 
9.827113510541e+00 1.000000000000e+00 
9.834449078881e+00 1.000000000000e+00 
9.841784647222e+00 1.000000000000e+00 
9.849120215562e+00 1.000000000000e+00 
1.073706076301e+01 1.000000000000e+00 
1.074406289642e+01 1.000000000000e+00 
1.075106502984e+01 1.000000000000e+00 
1.075806716325e+01 1.000000000000e+00 
1.076506929667e+01 1.000000000000e+00 
1.165434358381e+01 1.000000000000e+00 
1.166101228230e+01 1.000000000000e+00 
1.166768098080e+01 1.000000000000e+00 
1.167434967929e+01 1.000000000000e+00 
1.168101837778e+01 1.000000000000e+00 
1.257162640462e+01 1.000000000000e+00 
1.257796166819e+01 1.000000000000e+00 
1.258429693175e+01 1.000000000000e+00 
1.259063219532e+01 1.000000000000e+00 
1.259696745889e+01 1.000000000000e+00 
1.348890922542e+01 1.000000000000e+00 
1.349491105407e+01 1.000000000000e+00 
1.350091288271e+01 1.000000000000e+00 
1.350691471135e+01 1.000000000000e+00 
1.351291653999e+01 1.000000000000e+00 
1.440619204623e+01 1.000000000000e+00 
1.441186043995e+01 1.000000000000e+00 
1.441752883367e+01 1.000000000000e+00 
1.442319722738e+01 1.000000000000e+00 
1.442886562110e+01 1.000000000000e+00 
1.532347486704e+01 1.000000000000e+00 
1.532880982583e+01 1.000000000000e+00 
1.533414478462e+01 1.000000000000e+00 
1.533947974342e+01 1.000000000000e+00 
1.534481470221e+01 1.000000000000e+00 
1.624075768784e+01 1.000000000000e+00 
1.624575921171e+01 1.000000000000e+00 
1.625076073558e+01 1.000000000000e+00 
1.625576225945e+01 1.000000000000e+00 
1.626076378332e+01 1.000000000000e+00 
1.715804050865e+01 1.000000000000e+00 
1.716270859760e+01 1.000000000000e+00 
1.716737668654e+01 1.000000000000e+00 
1.717204477548e+01 1.000000000000e+00 
1.717671286443e+01 1.000000000000e+00 
1.807532332946e+01 1.000000000000e+00 
1.807965798348e+01 1.000000000000e+00 
1.808399263750e+01 1.000000000000e+00 
1.808832729152e+01 1.000000000000e+00 
1.809266194554e+01 1.000000000000e+00 
1.899260615027e+01 1.000000000000e+00 
1.899660736937e+01 1.000000000000e+00 
1.900060858846e+01 1.000000000000e+00 
1.900460980756e+01 1.000000000000e+00 
1.900861102665e+01 1.000000000000e+00 
1.990988897108e+01 1.000000000000e+00 
1.991355675525e+01 1.000000000000e+00 
1.991722453942e+01 1.000000000000e+00 
1.992089232360e+01 1.000000000000e+00 
1.992456010777e+01 1.000000000000e+00 
2.082717179190e+01 1.000000000000e+00 
2.083050614114e+01 1.000000000000e+00 
2.083384049039e+01 1.000000000000e+00 
2.083717483963e+01 1.000000000000e+00 
2.084050918888e+01 1.000000000000e+00 
2.174445461271e+01 1.000000000000e+00 
2.174745552703e+01 1.000000000000e+00 
2.175045644135e+01 1.000000000000e+00 
2.175345735567e+01 1.000000000000e+00 
2.175645826999e+01 1.000000000000e+00 
2.266173743352e+01 1.000000000000e+00 
2.266440491291e+01 1.000000000000e+00 
2.266707239231e+01 1.000000000000e+00 
2.266973987171e+01 1.000000000000e+00 
2.267240735110e+01 1.000000000000e+00 
2.357902025433e+01 1.000000000000e+00 
2.358135429880e+01 1.000000000000e+00 
2.358368834327e+01 1.000000000000e+00 
2.358602238774e+01 1.000000000000e+00 
2.358835643221e+01 1.000000000000e+00 
2.449630307514e+01 1.000000000000e+00 
2.449830368468e+01 1.000000000000e+00 
2.450030429423e+01 1.000000000000e+00 
2.450230490378e+01 1.000000000000e+00 
2.450430551333e+01 1.000000000000e+00 
2.541358589595e+01 1.000000000000e+00 
2.541525307057e+01 1.000000000000e+00 
2.541692024519e+01 1.000000000000e+00 
2.541858741982e+01 1.000000000000e+00 
2.542025459444e+01 1.000000000000e+00 
2.633086871676e+01 1.000000000000e+00 
2.633220245646e+01 1.000000000000e+00 
2.633353619615e+01 1.000000000000e+00 
2.633486993585e+01 1.000000000000e+00 
2.633620367555e+01 1.000000000000e+00 
2.724815153757e+01 1.000000000000e+00 
2.724915184234e+01 1.000000000000e+00 
2.725015214712e+01 1.000000000000e+00 
2.725115245189e+01 1.000000000000e+00 
2.725215275666e+01 1.000000000000e+00 
2.816543435838e+01 1.000000000000e+00 
2.816610122823e+01 1.000000000000e+00 
2.816676809808e+01 1.000000000000e+00 
2.816743496793e+01 1.000000000000e+00 
2.816810183778e+01 1.000000000000e+00 
2.908271717919e+01 1.000000000000e+00 
2.908305061411e+01 1.000000000000e+00 
2.908338404904e+01 1.000000000000e+00 
2.908371748396e+01 1.000000000000e+00 
2.908405091889e+01 1.000000000000e+00 
3.000000000000e+01 1.000000000000e+00 
3.000000000000e+01 1.000000000000e+00 
3.000000000000e+01 1.000000000000e+00 
3.000000000000e+01 1.000000000000e+00 
3.000000000000e+01 1.000000000000e+00 
3.002500000000e+01 9.876207709446e-01 
3.002500000000e+01 9.876207709446e-01 
3.002500000000e+01 9.876207709446e-01 
3.002500000000e+01 9.876207709446e-01 
3.002500000000e+01 9.876207709446e-01 
3.005000000000e+01 9.697756439369e-01 
3.005000000000e+01 9.697756439369e-01 
3.005000000000e+01 9.697756439369e-01 
3.005000000000e+01 9.697756439369e-01 
3.005000000000e+01 9.697756439369e-01 
3.007500000000e+01 9.507134089444e-01 
3.007500000000e+01 9.507134089444e-01 
3.007500000000e+01 9.507134089444e-01 
3.007500000000e+01 9.507134089444e-01 
3.007500000000e+01 9.507134089444e-01 
3.010000000000e+01 9.315621650298e-01 
3.010000000000e+01 9.315621650298e-01 
3.010000000000e+01 9.315621650298e-01 
3.010000000000e+01 9.315621650298e-01 
3.010000000000e+01 9.315621650298e-01 
3.012500000000e+01 9.128758324042e-01 
3.012500000000e+01 9.128758324042e-01 
3.012500000000e+01 9.128758324042e-01 
3.012500000000e+01 9.128758324042e-01 
3.012500000000e+01 9.128758324042e-01 
3.015000000000e+01 8.949248043380e-01 
3.015000000000e+01 8.949248043380e-01 
3.015000000000e+01 8.949248043380e-01 
3.015000000000e+01 8.949248043380e-01 
3.015000000000e+01 8.949248043380e-01 
3.017500000000e+01 8.778290027968e-01 
3.017500000000e+01 8.778290027968e-01 
3.017500000000e+01 8.778290027968e-01 
3.017500000000e+01 8.778290027968e-01 
3.017500000000e+01 8.778290027968e-01 
3.020000000000e+01 8.616255702900e-01 
3.020000000000e+01 8.616255702900e-01 
3.020000000000e+01 8.616255702900e-01 
3.020000000000e+01 8.616255702900e-01 
3.020000000000e+01 8.616255702900e-01 
3.022500000000e+01 8.463059583920e-01 
3.022500000000e+01 8.463059583920e-01 
3.022500000000e+01 8.463059583920e-01 
3.022500000000e+01 8.463059583920e-01 
3.022500000000e+01 8.463059583920e-01 
3.025000000000e+01 8.318370344398e-01 
3.025000000000e+01 8.318370344398e-01 
3.025000000000e+01 8.318370344398e-01 
3.025000000000e+01 8.318370344398e-01 
3.025000000000e+01 8.318370344398e-01 
3.027500000000e+01 8.181733156316e-01 
3.027500000000e+01 8.181733156316e-01 
3.027500000000e+01 8.181733156316e-01 
3.027500000000e+01 8.181733156316e-01 
3.027500000000e+01 8.181733156316e-01 
3.030000000000e+01 8.052640970350e-01 
3.030000000000e+01 8.052640970350e-01 
3.030000000000e+01 8.052640970350e-01 
3.030000000000e+01 8.052640970350e-01 
3.030000000000e+01 8.052640970350e-01 
3.032500000000e+01 7.930575753856e-01 
3.032500000000e+01 7.930575753856e-01 
3.032500000000e+01 7.930575753856e-01 
3.032500000000e+01 7.930575753856e-01 
3.032500000000e+01 7.930575753856e-01 
3.035000000000e+01 7.815031815402e-01 
3.035000000000e+01 7.815031815402e-01 
3.035000000000e+01 7.815031815402e-01 
3.035000000000e+01 7.815031815402e-01 
3.035000000000e+01 7.815031815402e-01 
3.037500000000e+01 7.705528376764e-01 
3.037500000000e+01 7.705528376764e-01 
3.037500000000e+01 7.705528376764e-01 
3.037500000000e+01 7.705528376764e-01 
3.037500000000e+01 7.705528376764e-01 
3.040000000000e+01 7.601615689674e-01 
3.040000000000e+01 7.601615689674e-01 
3.040000000000e+01 7.601615689674e-01 
3.040000000000e+01 7.601615689674e-01 
3.040000000000e+01 7.601615689674e-01 
3.042500000000e+01 7.502877306002e-01 
3.042500000000e+01 7.502877306002e-01 
3.042500000000e+01 7.502877306002e-01 
3.042500000000e+01 7.502877306002e-01 
3.042500000000e+01 7.502877306002e-01 
3.045000000000e+01 7.408930096824e-01 
3.045000000000e+01 7.408930096824e-01 
3.045000000000e+01 7.408930096824e-01 
3.045000000000e+01 7.408930096824e-01 
3.045000000000e+01 7.408930096824e-01 
3.047500000000e+01 7.319422999608e-01 
3.047500000000e+01 7.319422999608e-01 
3.047500000000e+01 7.319422999608e-01 
3.047500000000e+01 7.319422999608e-01 
3.047500000000e+01 7.319422999608e-01 
3.050000000000e+01 7.234035093991e-01 
3.050000000000e+01 7.234035093991e-01 
3.050000000000e+01 7.234035093991e-01 
3.050000000000e+01 7.234035093991e-01 
3.050000000000e+01 7.234035093991e-01 
3.052500000000e+01 7.152473371957e-01 
3.052500000000e+01 7.152473371957e-01 
3.052500000000e+01 7.152473371957e-01 
3.052500000000e+01 7.152473371957e-01 
3.052500000000e+01 7.152473371957e-01 
3.055000000000e+01 7.074470422112e-01 
3.055000000000e+01 7.074470422112e-01 
3.055000000000e+01 7.074470422112e-01 
3.055000000000e+01 7.074470422112e-01 
3.055000000000e+01 7.074470422112e-01 
3.057500000000e+01 6.999782156504e-01 
3.057500000000e+01 6.999782156504e-01 
3.057500000000e+01 6.999782156504e-01 
3.057500000000e+01 6.999782156504e-01 
3.057500000000e+01 6.999782156504e-01 
3.060000000000e+01 6.928185651596e-01 
3.060000000000e+01 6.928185651596e-01 
3.060000000000e+01 6.928185651596e-01 
3.060000000000e+01 6.928185651596e-01 
3.060000000000e+01 6.928185651596e-01 
3.062500000000e+01 6.859477139679e-01 
3.062500000000e+01 6.859477139679e-01 
3.062500000000e+01 6.859477139679e-01 
3.062500000000e+01 6.859477139679e-01 
3.062500000000e+01 6.859477139679e-01 
3.065000000000e+01 6.793470165436e-01 
3.065000000000e+01 6.793470165436e-01 
3.065000000000e+01 6.793470165436e-01 
3.065000000000e+01 6.793470165436e-01 
3.065000000000e+01 6.793470165436e-01 
3.067500000000e+01 6.729993909360e-01 
3.067500000000e+01 6.729993909360e-01 
3.067500000000e+01 6.729993909360e-01 
3.067500000000e+01 6.729993909360e-01 
3.067500000000e+01 6.729993909360e-01 
3.070000000000e+01 6.668891672206e-01 
3.070000000000e+01 6.668891672206e-01 
3.070000000000e+01 6.668891672206e-01 
3.070000000000e+01 6.668891672206e-01 
3.070000000000e+01 6.668891672206e-01 
3.072500000000e+01 6.610019510587e-01 
3.072500000000e+01 6.610019510587e-01 
3.072500000000e+01 6.610019510587e-01 
3.072500000000e+01 6.610019510587e-01 
3.072500000000e+01 6.610019510587e-01 
3.075000000000e+01 6.553245011865e-01 
3.075000000000e+01 6.553245011865e-01 
3.075000000000e+01 6.553245011865e-01 
3.075000000000e+01 6.553245011865e-01 
3.075000000000e+01 6.553245011865e-01 
3.077500000000e+01 6.498446195878e-01 
3.077500000000e+01 6.498446195878e-01 
3.077500000000e+01 6.498446195878e-01 
3.077500000000e+01 6.498446195878e-01 
3.077500000000e+01 6.498446195878e-01 
3.080000000000e+01 6.445510531188e-01 
3.080000000000e+01 6.445510531188e-01 
3.080000000000e+01 6.445510531188e-01 
3.080000000000e+01 6.445510531188e-01 
3.080000000000e+01 6.445510531188e-01 
3.082500000000e+01 6.394334054150e-01 
3.082500000000e+01 6.394334054150e-01 
3.082500000000e+01 6.394334054150e-01 
3.082500000000e+01 6.394334054150e-01 
3.082500000000e+01 6.394334054150e-01 
3.085000000000e+01 6.344820579917e-01 
3.085000000000e+01 6.344820579917e-01 
3.085000000000e+01 6.344820579917e-01 
3.085000000000e+01 6.344820579917e-01 
3.085000000000e+01 6.344820579917e-01 
3.087500000000e+01 6.296880995462e-01 
3.087500000000e+01 6.296880995462e-01 
3.087500000000e+01 6.296880995462e-01 
3.087500000000e+01 6.296880995462e-01 
3.087500000000e+01 6.296880995462e-01 
3.090000000000e+01 6.250432625624e-01 
3.090000000000e+01 6.250432625624e-01 
3.090000000000e+01 6.250432625624e-01 
3.090000000000e+01 6.250432625624e-01 
3.090000000000e+01 6.250432625624e-01 
3.092500000000e+01 6.205398664126e-01 
3.092500000000e+01 6.205398664126e-01 
3.092500000000e+01 6.205398664126e-01 
3.092500000000e+01 6.205398664126e-01 
3.092500000000e+01 6.205398664126e-01 
3.095000000000e+01 6.161707662369e-01 
3.095000000000e+01 6.161707662369e-01 
3.095000000000e+01 6.161707662369e-01 
3.095000000000e+01 6.161707662369e-01 
3.095000000000e+01 6.161707662369e-01 
3.097500000000e+01 6.119293069613e-01 
3.097500000000e+01 6.119293069613e-01 
3.097500000000e+01 6.119293069613e-01 
3.097500000000e+01 6.119293069613e-01 
3.097500000000e+01 6.119293069613e-01 
3.100000000000e+01 6.078092818871e-01 
3.100000000000e+01 6.078092818871e-01 
3.100000000000e+01 6.078092818871e-01 
3.100000000000e+01 6.078092818871e-01 
3.100000000000e+01 6.078092818871e-01 
3.102500000000e+01 6.038048953494e-01 
3.102500000000e+01 6.038048953494e-01 
3.102500000000e+01 6.038048953494e-01 
3.102500000000e+01 6.038048953494e-01 
3.102500000000e+01 6.038048953494e-01 
3.105000000000e+01 5.999107290013e-01 
3.105000000000e+01 5.999107290013e-01 
3.105000000000e+01 5.999107290013e-01 
3.105000000000e+01 5.999107290013e-01 
3.105000000000e+01 5.999107290013e-01 
3.107500000000e+01 5.961217113309e-01 
3.107500000000e+01 5.961217113309e-01 
3.107500000000e+01 5.961217113309e-01 
3.107500000000e+01 5.961217113309e-01 
3.107500000000e+01 5.961217113309e-01 
3.110000000000e+01 5.924330900627e-01 
3.110000000000e+01 5.924330900627e-01 
3.110000000000e+01 5.924330900627e-01 
3.110000000000e+01 5.924330900627e-01 
3.110000000000e+01 5.924330900627e-01 
3.112500000000e+01 5.888404071392e-01 
3.112500000000e+01 5.888404071392e-01 
3.112500000000e+01 5.888404071392e-01 
3.112500000000e+01 5.888404071392e-01 
3.112500000000e+01 5.888404071392e-01 
3.115000000000e+01 5.853394760078e-01 
3.115000000000e+01 5.853394760078e-01 
3.115000000000e+01 5.853394760078e-01 
3.115000000000e+01 5.853394760078e-01 
3.115000000000e+01 5.853394760078e-01 
3.117500000000e+01 5.819263609758e-01 
3.117500000000e+01 5.819263609758e-01 
3.117500000000e+01 5.819263609758e-01 
3.117500000000e+01 5.819263609758e-01 
3.117500000000e+01 5.819263609758e-01 
3.120000000000e+01 5.785973584173e-01 
3.120000000000e+01 5.785973584173e-01 
3.120000000000e+01 5.785973584173e-01 
3.120000000000e+01 5.785973584173e-01 
3.120000000000e+01 5.785973584173e-01 
3.122500000000e+01 5.753489796460e-01 
3.122500000000e+01 5.753489796460e-01 
3.122500000000e+01 5.753489796460e-01 
3.122500000000e+01 5.753489796460e-01 
3.122500000000e+01 5.753489796460e-01 
3.125000000000e+01 5.721779352840e-01 
3.125000000000e+01 5.721779352840e-01 
3.125000000000e+01 5.721779352840e-01 
3.125000000000e+01 5.721779352840e-01 
3.125000000000e+01 5.721779352840e-01 
3.127500000000e+01 5.690811209785e-01 
3.127500000000e+01 5.690811209785e-01 
3.127500000000e+01 5.690811209785e-01 
3.127500000000e+01 5.690811209785e-01 
3.127500000000e+01 5.690811209785e-01 
3.130000000000e+01 5.660556043336e-01 
3.130000000000e+01 5.660556043336e-01 
3.130000000000e+01 5.660556043336e-01 
3.130000000000e+01 5.660556043336e-01 
3.130000000000e+01 5.660556043336e-01 
3.132500000000e+01 5.630986129391e-01 
3.132500000000e+01 5.630986129391e-01 
3.132500000000e+01 5.630986129391e-01 
3.132500000000e+01 5.630986129391e-01 
3.132500000000e+01 5.630986129391e-01 
3.135000000000e+01 5.602075233904e-01 
3.135000000000e+01 5.602075233904e-01 
3.135000000000e+01 5.602075233904e-01 
3.135000000000e+01 5.602075233904e-01 
3.135000000000e+01 5.602075233904e-01 
3.137500000000e+01 5.573798512060e-01 
3.137500000000e+01 5.573798512060e-01 
3.137500000000e+01 5.573798512060e-01 
3.137500000000e+01 5.573798512060e-01 
3.137500000000e+01 5.573798512060e-01 
3.140000000000e+01 5.546132415581e-01 
3.140000000000e+01 5.546132415581e-01 
3.140000000000e+01 5.546132415581e-01 
3.140000000000e+01 5.546132415581e-01 
3.140000000000e+01 5.546132415581e-01 
3.142500000000e+01 5.519054607414e-01 
3.142500000000e+01 5.519054607414e-01 
3.142500000000e+01 5.519054607414e-01 
3.142500000000e+01 5.519054607414e-01 
3.142500000000e+01 5.519054607414e-01 
3.145000000000e+01 5.492543883110e-01 
3.145000000000e+01 5.492543883110e-01 
3.145000000000e+01 5.492543883110e-01 
3.145000000000e+01 5.492543883110e-01 
3.145000000000e+01 5.492543883110e-01 
3.147500000000e+01 5.466580098318e-01 
3.147500000000e+01 5.466580098318e-01 
3.147500000000e+01 5.466580098318e-01 
3.147500000000e+01 5.466580098318e-01 
3.147500000000e+01 5.466580098318e-01 
3.150000000000e+01 5.441144101810e-01 
3.150000000000e+01 5.441144101810e-01 
3.150000000000e+01 5.441144101810e-01 
3.150000000000e+01 5.441144101810e-01 
3.150000000000e+01 5.441144101810e-01 
3.152500000000e+01 5.416217673588e-01 
3.152500000000e+01 5.416217673588e-01 
3.152500000000e+01 5.416217673588e-01 
3.152500000000e+01 5.416217673588e-01 
3.152500000000e+01 5.416217673588e-01 
3.155000000000e+01 5.391783467591e-01 
3.155000000000e+01 5.391783467591e-01 
3.155000000000e+01 5.391783467591e-01 
3.155000000000e+01 5.391783467591e-01 
3.155000000000e+01 5.391783467591e-01 
3.157500000000e+01 5.367824958643e-01 
3.157500000000e+01 5.367824958643e-01 
3.157500000000e+01 5.367824958643e-01 
3.157500000000e+01 5.367824958643e-01 
3.157500000000e+01 5.367824958643e-01 
3.160000000000e+01 5.344326393247e-01 
3.160000000000e+01 5.344326393247e-01 
3.160000000000e+01 5.344326393247e-01 
3.160000000000e+01 5.344326393247e-01 
3.160000000000e+01 5.344326393247e-01 
3.162500000000e+01 5.321272743928e-01 
3.162500000000e+01 5.321272743928e-01 
3.162500000000e+01 5.321272743928e-01 
3.162500000000e+01 5.321272743928e-01 
3.162500000000e+01 5.321272743928e-01 
3.165000000000e+01 5.298649666811e-01 
3.165000000000e+01 5.298649666811e-01 
3.165000000000e+01 5.298649666811e-01 
3.165000000000e+01 5.298649666811e-01 
3.165000000000e+01 5.298649666811e-01 
3.167500000000e+01 5.276443462180e-01 
3.167500000000e+01 5.276443462180e-01 
3.167500000000e+01 5.276443462180e-01 
3.167500000000e+01 5.276443462180e-01 
3.167500000000e+01 5.276443462180e-01 
3.170000000000e+01 5.254641037767e-01 
3.170000000000e+01 5.254641037767e-01 
3.170000000000e+01 5.254641037767e-01 
3.170000000000e+01 5.254641037767e-01 
3.170000000000e+01 5.254641037767e-01 
3.172500000000e+01 5.233229874560e-01 
3.172500000000e+01 5.233229874560e-01 
3.172500000000e+01 5.233229874560e-01 
3.172500000000e+01 5.233229874560e-01 
3.172500000000e+01 5.233229874560e-01 
3.175000000000e+01 5.212197994921e-01 
3.175000000000e+01 5.212197994921e-01 
3.175000000000e+01 5.212197994921e-01 
3.175000000000e+01 5.212197994921e-01 
3.175000000000e+01 5.212197994921e-01 
3.177500000000e+01 5.191533932842e-01 
3.177500000000e+01 5.191533932842e-01 
3.177500000000e+01 5.191533932842e-01 
3.177500000000e+01 5.191533932842e-01 
3.177500000000e+01 5.191533932842e-01 
3.180000000000e+01 5.171226706164e-01 
3.180000000000e+01 5.171226706164e-01 
3.180000000000e+01 5.171226706164e-01 
3.180000000000e+01 5.171226706164e-01 
3.180000000000e+01 5.171226706164e-01 
3.182500000000e+01 5.151265790614e-01 
3.182500000000e+01 5.151265790614e-01 
3.182500000000e+01 5.151265790614e-01 
3.182500000000e+01 5.151265790614e-01 
3.182500000000e+01 5.151265790614e-01 
3.185000000000e+01 5.131641095520e-01 
3.185000000000e+01 5.131641095520e-01 
3.185000000000e+01 5.131641095520e-01 
3.185000000000e+01 5.131641095520e-01 
3.185000000000e+01 5.131641095520e-01 
3.187500000000e+01 5.112342941078e-01 
3.187500000000e+01 5.112342941078e-01 
3.187500000000e+01 5.112342941078e-01 
3.187500000000e+01 5.112342941078e-01 
3.187500000000e+01 5.112342941078e-01 
3.190000000000e+01 5.093362037054e-01 
3.190000000000e+01 5.093362037054e-01 
3.190000000000e+01 5.093362037054e-01 
3.190000000000e+01 5.093362037054e-01 
3.190000000000e+01 5.093362037054e-01 
3.192500000000e+01 5.074689462822e-01 
3.192500000000e+01 5.074689462822e-01 
3.192500000000e+01 5.074689462822e-01 
3.192500000000e+01 5.074689462822e-01 
3.192500000000e+01 5.074689462822e-01 
3.195000000000e+01 5.056316648631e-01 
3.195000000000e+01 5.056316648631e-01 
3.195000000000e+01 5.056316648631e-01 
3.195000000000e+01 5.056316648631e-01 
3.195000000000e+01 5.056316648631e-01 
3.197500000000e+01 5.038235358020e-01 
3.197500000000e+01 5.038235358020e-01 
3.197500000000e+01 5.038235358020e-01 
3.197500000000e+01 5.038235358020e-01 
3.197500000000e+01 5.038235358020e-01 
3.200000000000e+01 5.010874089222e-01 
3.200000000000e+01 5.010933141702e-01 
3.200000000000e+01 5.010962621630e-01 
3.200000000000e+01 5.010903630882e-01 
3.200000000000e+01 5.010992070611e-01 
3.309630307515e+01 4.426407058621e-01 
3.309830368469e+01 4.425570281102e-01 
3.310030429424e+01 4.424734177660e-01 
3.310230490379e+01 4.423898747373e-01 
3.310430551334e+01 4.423063989322e-01 
3.419260615029e+01 4.067675961721e-01 
3.419660736939e+01 4.066572282087e-01 
3.420060858848e+01 4.065469973103e-01 
3.420460980758e+01 4.064369031820e-01 
3.420861102667e+01 4.063269455301e-01 
3.528890922544e+01 3.812321095846e-01 
3.529491105408e+01 3.811104645620e-01 
3.530091288272e+01 3.809890003267e-01 
3.530691471137e+01 3.808677164112e-01 
3.531291654001e+01 3.807466123497e-01 
3.638521230059e+01 3.617698412003e-01 
3.639321473878e+01 3.616433776439e-01 
3.640121717696e+01 3.615171223147e-01 
3.640921961515e+01 3.613910746152e-01 
3.641722205334e+01 3.612652339502e-01 
3.748151537573e+01 3.462274584759e-01 
3.749151842347e+01 3.460992170824e-01 
3.750152147121e+01 3.459712014438e-01 
3.751152451894e+01 3.458434108670e-01 
3.752152756668e+01 3.457158446618e-01 
 TITLE = "Profiles along polylines"
 VARIABLES = "DIST" "SATURATION1" 
 ZONE T="TIME=1.797693134862e+308"
2.481515375732e+00 1.000000000000e+00 
2.491518423469e+00 1.000000000000e+00 
2.501521471206e+00 1.000000000000e+00 
2.511524518943e+00 1.000000000000e+00 
2.521527566680e+00 1.000000000000e+00 
3.398798196541e+00 1.000000000000e+00 
3.408467809353e+00 1.000000000000e+00 
3.418137422166e+00 1.000000000000e+00 
3.427807034978e+00 1.000000000000e+00 
3.437476647790e+00 1.000000000000e+00 
4.316081017349e+00 1.000000000000e+00 
4.325417195237e+00 1.000000000000e+00 
4.334753373125e+00 1.000000000000e+00 
4.344089551013e+00 1.000000000000e+00 
4.353425728900e+00 1.000000000000e+00 
5.233363838159e+00 1.000000000000e+00 
5.242366581122e+00 1.000000000000e+00 
5.251369324085e+00 1.000000000000e+00 
5.260372067048e+00 1.000000000000e+00 
5.269374810011e+00 1.000000000000e+00 
6.150646658968e+00 1.000000000000e+00 
6.159315967006e+00 1.000000000000e+00 
6.167985275045e+00 1.000000000000e+00 
6.176654583084e+00 1.000000000000e+00 
6.185323891122e+00 1.000000000000e+00 
7.067929479776e+00 1.000000000000e+00 
7.076265352890e+00 1.000000000000e+00 
7.084601226004e+00 1.000000000000e+00 
7.092937099118e+00 1.000000000000e+00 
7.101272972232e+00 1.000000000000e+00 
7.985212300584e+00 1.000000000000e+00 
7.993214738774e+00 1.000000000000e+00 
8.001217176963e+00 1.000000000000e+00 
8.009219615153e+00 1.000000000000e+00 
8.017222053342e+00 1.000000000000e+00 
8.902495121393e+00 1.000000000000e+00 
8.910164124657e+00 1.000000000000e+00 
8.917833127922e+00 1.000000000000e+00 
8.925502131187e+00 1.000000000000e+00 
8.933171134452e+00 1.000000000000e+00 
9.819777942201e+00 1.000000000000e+00 
9.827113510541e+00 1.000000000000e+00 
9.834449078881e+00 1.000000000000e+00 
9.841784647222e+00 1.000000000000e+00 
9.849120215562e+00 1.000000000000e+00 
1.073706076301e+01 1.000000000000e+00 
1.074406289642e+01 1.000000000000e+00 
1.075106502984e+01 1.000000000000e+00 
1.075806716325e+01 1.000000000000e+00 
1.076506929667e+01 1.000000000000e+00 
1.165434358381e+01 1.000000000000e+00 
1.166101228230e+01 1.000000000000e+00 
1.166768098080e+01 1.000000000000e+00 
1.167434967929e+01 1.000000000000e+00 
1.168101837778e+01 1.000000000000e+00 
1.257162640462e+01 1.000000000000e+00 
1.257796166819e+01 1.000000000000e+00 
1.258429693175e+01 1.000000000000e+00 
1.259063219532e+01 1.000000000000e+00 
1.259696745889e+01 1.000000000000e+00 
1.348890922542e+01 1.000000000000e+00 
1.349491105407e+01 1.000000000000e+00 
1.350091288271e+01 1.000000000000e+00 
1.350691471135e+01 1.000000000000e+00 
1.351291653999e+01 1.000000000000e+00 
1.440619204623e+01 1.000000000000e+00 
1.441186043995e+01 1.000000000000e+00 
1.441752883367e+01 1.000000000000e+00 
1.442319722738e+01 1.000000000000e+00 
1.442886562110e+01 1.000000000000e+00 
1.532347486704e+01 1.000000000000e+00 
1.532880982583e+01 1.000000000000e+00 
1.533414478462e+01 1.000000000000e+00 
1.533947974342e+01 1.000000000000e+00 
1.534481470221e+01 1.000000000000e+00 
1.624075768784e+01 1.000000000000e+00 
1.624575921171e+01 1.000000000000e+00 
1.625076073558e+01 1.000000000000e+00 
1.625576225945e+01 1.000000000000e+00 
1.626076378332e+01 1.000000000000e+00 
1.715804050865e+01 1.000000000000e+00 
1.716270859760e+01 1.000000000000e+00 
1.716737668654e+01 1.000000000000e+00 
1.717204477548e+01 1.000000000000e+00 
1.717671286443e+01 1.000000000000e+00 
1.807532332946e+01 1.000000000000e+00 
1.807965798348e+01 1.000000000000e+00 
1.808399263750e+01 1.000000000000e+00 
1.808832729152e+01 1.000000000000e+00 
1.809266194554e+01 1.000000000000e+00 
1.899260615027e+01 1.000000000000e+00 
1.899660736937e+01 1.000000000000e+00 
1.900060858846e+01 1.000000000000e+00 
1.900460980756e+01 1.000000000000e+00 
1.900861102665e+01 1.000000000000e+00 
1.990988897108e+01 1.000000000000e+00 
1.991355675525e+01 1.000000000000e+00 
1.991722453942e+01 1.000000000000e+00 
1.992089232360e+01 1.000000000000e+00 
1.992456010777e+01 1.000000000000e+00 
2.082717179190e+01 1.000000000000e+00 
2.083050614114e+01 1.000000000000e+00 
2.083384049039e+01 1.000000000000e+00 
2.083717483963e+01 1.000000000000e+00 
2.084050918888e+01 1.000000000000e+00 
2.174445461271e+01 1.000000000000e+00 
2.174745552703e+01 1.000000000000e+00 
2.175045644135e+01 1.000000000000e+00 
2.175345735567e+01 1.000000000000e+00 
2.175645826999e+01 1.000000000000e+00 
2.266173743352e+01 1.000000000000e+00 
2.266440491291e+01 1.000000000000e+00 
2.266707239231e+01 1.000000000000e+00 
2.266973987171e+01 1.000000000000e+00 
2.267240735110e+01 1.000000000000e+00 
2.357902025433e+01 1.000000000000e+00 
2.358135429880e+01 1.000000000000e+00 
2.358368834327e+01 1.000000000000e+00 
2.358602238774e+01 1.000000000000e+00 
2.358835643221e+01 1.000000000000e+00 
2.449630307514e+01 1.000000000000e+00 
2.449830368468e+01 1.000000000000e+00 
2.450030429423e+01 1.000000000000e+00 
2.450230490378e+01 1.000000000000e+00 
2.450430551333e+01 1.000000000000e+00 
2.541358589595e+01 1.000000000000e+00 
2.541525307057e+01 1.000000000000e+00 
2.541692024519e+01 1.000000000000e+00 
2.541858741982e+01 1.000000000000e+00 
2.542025459444e+01 1.000000000000e+00 
2.633086871676e+01 1.000000000000e+00 
2.633220245646e+01 1.000000000000e+00 
2.633353619615e+01 1.000000000000e+00 
2.633486993585e+01 1.000000000000e+00 
2.633620367555e+01 1.000000000000e+00 
2.724815153757e+01 1.000000000000e+00 
2.724915184234e+01 1.000000000000e+00 
2.725015214712e+01 1.000000000000e+00 
2.725115245189e+01 1.000000000000e+00 
2.725215275666e+01 1.000000000000e+00 
2.816543435838e+01 1.000000000000e+00 
2.816610122823e+01 1.000000000000e+00 
2.816676809808e+01 1.000000000000e+00 
2.816743496793e+01 1.000000000000e+00 
2.816810183778e+01 1.000000000000e+00 
2.908271717919e+01 1.000000000000e+00 
2.908305061411e+01 1.000000000000e+00 
2.908338404904e+01 1.000000000000e+00 
2.908371748396e+01 1.000000000000e+00 
2.908405091889e+01 1.000000000000e+00 
3.000000000000e+01 1.000000000000e+00 
3.000000000000e+01 1.000000000000e+00 
3.000000000000e+01 1.000000000000e+00 
3.000000000000e+01 1.000000000000e+00 
3.000000000000e+01 1.000000000000e+00 
3.002500000000e+01 1.000000000000e+00 
3.002500000000e+01 1.000000000000e+00 
3.002500000000e+01 1.000000000000e+00 
3.002500000000e+01 1.000000000000e+00 
3.002500000000e+01 1.000000000000e+00 
3.005000000000e+01 1.000000000000e+00 
3.005000000000e+01 1.000000000000e+00 
3.005000000000e+01 1.000000000000e+00 
3.005000000000e+01 1.000000000000e+00 
3.005000000000e+01 1.000000000000e+00 
3.007500000000e+01 1.000000000000e+00 
3.007500000000e+01 1.000000000000e+00 
3.007500000000e+01 1.000000000000e+00 
3.007500000000e+01 1.000000000000e+00 
3.007500000000e+01 1.000000000000e+00 
3.010000000000e+01 1.000000000000e+00 
3.010000000000e+01 1.000000000000e+00 
3.010000000000e+01 1.000000000000e+00 
3.010000000000e+01 1.000000000000e+00 
3.010000000000e+01 1.000000000000e+00 
3.012500000000e+01 1.000000000000e+00 
3.012500000000e+01 1.000000000000e+00 
3.012500000000e+01 1.000000000000e+00 
3.012500000000e+01 1.000000000000e+00 
3.012500000000e+01 1.000000000000e+00 
3.015000000000e+01 1.000000000000e+00 
3.015000000000e+01 1.000000000000e+00 
3.015000000000e+01 1.000000000000e+00 