 TITLE = "Profiles along polylines"
 VARIABLES = "DIST" "SATURATION1" 
 ZONE T="TIME=0.000000000000e+00"
4.001369133888e-02 1.000000000000e+00 
4.501540275624e-02 1.000000000000e+00 
5.001711417360e-02 1.000000000000e+00 
5.501882559096e-02 1.000000000000e+00 
6.002053700832e-02 1.000000000000e+00 
1.038679901627e+00 1.000000000000e+00 
1.043514889331e+00 1.000000000000e+00 
1.048349877034e+00 1.000000000000e+00 
1.053184864738e+00 1.000000000000e+00 
1.058019852441e+00 1.000000000000e+00 
2.037346111915e+00 1.000000000000e+00 
2.042014375905e+00 1.000000000000e+00 
2.046682639894e+00 1.000000000000e+00 
2.051350903884e+00 1.000000000000e+00 
2.056019167873e+00 1.000000000000e+00 
3.036012322205e+00 1.000000000000e+00 
3.040513862480e+00 1.000000000000e+00 
3.045015402756e+00 1.000000000000e+00 
3.049516943031e+00 1.000000000000e+00 
3.054018483307e+00 1.000000000000e+00 
4.034678532493e+00 1.000000000000e+00 
4.039013349055e+00 1.000000000000e+00 
4.043348165617e+00 1.000000000000e+00 
4.047682982179e+00 1.000000000000e+00 
4.052017798740e+00 1.000000000000e+00 
5.033344742781e+00 1.000000000000e+00 
5.037512835629e+00 1.000000000000e+00 
5.041680928477e+00 1.000000000000e+00 
5.045849021325e+00 1.000000000000e+00 
5.050017114172e+00 1.000000000000e+00 
6.032010953069e+00 1.000000000000e+00 
6.036012322203e+00 1.000000000000e+00 
6.040013691337e+00 1.000000000000e+00 
6.044015060471e+00 1.000000000000e+00 
6.048016429605e+00 1.000000000000e+00 
7.030677163357e+00 1.000000000000e+00 
7.034511808777e+00 1.000000000000e+00 
7.038346454197e+00 1.000000000000e+00 
7.042181099617e+00 1.000000000000e+00 
7.046015745037e+00 1.000000000000e+00 
8.029343373645e+00 1.000000000000e+00 
8.033011295351e+00 1.000000000000e+00 
8.036679217057e+00 1.000000000000e+00 
8.040347138763e+00 1.000000000000e+00 
8.044015060469e+00 1.000000000000e+00 
9.028009583930e+00 1.000000000000e+00 
9.031510781922e+00 1.000000000000e+00 
9.035011979914e+00 1.000000000000e+00 
9.038513177906e+00 1.000000000000e+00 
9.042014375898e+00 1.000000000000e+00 
1.002667579421e+01 1.000000000000e+00 
1.003001026849e+01 1.000000000000e+00 
1.003334474277e+01 1.000000000000e+00 
1.003667921705e+01 1.000000000000e+00 
1.004001369133e+01 1.000000000000e+00 
1.102534200450e+01 1.000000000000e+00 
1.102850975506e+01 1.000000000000e+00 
1.103167750563e+01 1.000000000000e+00 
1.103484525619e+01 1.000000000000e+00 
1.103801300676e+01 1.000000000000e+00 
1.202400821478e+01 1.000000000000e+00 
1.202700924163e+01 1.000000000000e+00 
1.203001026849e+01 1.000000000000e+00 
1.203301129534e+01 1.000000000000e+00 
1.203601232219e+01 1.000000000000e+00 
1.302267442507e+01 1.000000000000e+00 
1.302550872821e+01 1.000000000000e+00 
1.302834303134e+01 1.000000000000e+00 
1.303117733448e+01 1.000000000000e+00 
1.303401163762e+01 1.000000000000e+00 
1.402134063535e+01 1.000000000000e+00 
1.402400821478e+01 1.000000000000e+00 
1.402667579420e+01 1.000000000000e+00 
1.402934337362e+01 1.000000000000e+00 
1.403201095304e+01 1.000000000000e+00 
1.502000684564e+01 1.000000000000e+00 
1.502250770135e+01 1.000000000000e+00 
1.502500855706e+01 1.000000000000e+00 
1.502750941277e+01 1.000000000000e+00 
1.503001026847e+01 1.000000000000e+00 
1.601867305593e+01 1.000000000000e+00 
1.602100718792e+01 1.000000000000e+00 
1.602334131992e+01 1.000000000000e+00 
1.602567545191e+01 1.000000000000e+00 
1.602800958391e+01 1.000000000000e+00 
1.701733926622e+01 1.000000000000e+00 
1.701950667450e+01 1.000000000000e+00 
1.702167408278e+01 1.000000000000e+00 
1.702384149106e+01 1.000000000000e+00 
1.702600889934e+01 1.000000000000e+00 
1.801600547651e+01 1.000000000000e+00 
1.801800616108e+01 1.000000000000e+00 
1.802000684564e+01 1.000000000000e+00 
1.802200753021e+01 1.000000000000e+00 
1.802400821478e+01 1.000000000000e+00 
1.901467168680e+01 1.000000000000e+00 
1.901650564765e+01 1.000000000000e+00 
1.901833960851e+01 1.000000000000e+00 
1.902017356936e+01 1.000000000000e+00 
1.902200753021e+01 1.000000000000e+00 
2.001333789709e+01 1.000000000000e+00 
2.001500513423e+01 1.000000000000e+00 
2.001667237137e+01 1.000000000000e+00 
2.001833960851e+01 1.000000000000e+00 
2.002000684565e+01 1.000000000000e+00 
2.101200410738e+01 1.000000000000e+00 
2.101350462081e+01 1.000000000000e+00 
2.101500513423e+01 1.000000000000e+00 
2.101650564766e+01 1.000000000000e+00 
2.101800616108e+01 1.000000000000e+00 
2.201067031767e+01 1.000000000000e+00 
2.201200410739e+01 1.000000000000e+00 
2.201333789710e+01 1.000000000000e+00 
2.201467168681e+01 1.000000000000e+00 
2.201600547652e+01 1.000000000000e+00 
2.300933652796e+01 1.000000000000e+00 
2.301050359396e+01 1.000000000000e+00 
2.301167065996e+01 1.000000000000e+00 
2.301283772596e+01 1.000000000000e+00 
2.301400479195e+01 1.000000000000e+00 
2.400800273826e+01 1.000000000000e+00 
2.400900308054e+01 1.000000000000e+00 
2.401000342282e+01 1.000000000000e+00 
2.401100376511e+01 1.000000000000e+00 
2.401200410739e+01 1.000000000000e+00 
2.500666894855e+01 1.000000000000e+00 
2.500750256712e+01 1.000000000000e+00 
2.500833618569e+01 1.000000000000e+00 
2.500916980425e+01 1.000000000000e+00 
2.501000342282e+01 1.000000000000e+00 
2.600533515884e+01 1.000000000000e+00 
2.600600205369e+01 1.000000000000e+00 
2.600666894855e+01 1.000000000000e+00 
2.600733584340e+01 1.000000000000e+00 
2.600800273826e+01 1.000000000000e+00 
2.700400136913e+01 1.000000000000e+00 
2.700450154027e+01 1.000000000000e+00 
2.700500171141e+01 1.000000000000e+00 
2.700550188255e+01 1.000000000000e+00 
2.700600205369e+01 1.000000000000e+00 
2.800266757942e+01 1.000000000000e+00 
2.800300102685e+01 1.000000000000e+00 
2.800333447427e+01 1.000000000000e+00 
2.800366792170e+01 1.000000000000e+00 
2.800400136913e+01 1.000000000000e+00 
2.900133378971e+01 1.000000000000e+00 
2.900150051342e+01 1.000000000000e+00 
2.900166723714e+01 1.000000000000e+00 
2.900183396085e+01 1.000000000000e+00 
2.900200068456e+01 1.000000000000e+00 
3.000000000000e+01 1.000000000000e+00 
3.000000000000e+01 1.000000000000e+00 
3.000000000000e+01 1.000000000000e+00 
3.000000000000e+01 1.000000000000e+00 
3.000000000000e+01 1.000000000000e+00 
3.002500000000e+01 9.876207709446e-01 
3.002500000000e+01 9.876207709446e-01 
3.002500000000e+01 9.876207709446e-01 
3.002500000000e+01 9.876207709446e-01 
3.002500000000e+01 9.876207709446e-01 
3.005000000000e+01 9.697756439369e-01 
3.005000000000e+01 9.697756439369e-01 
3.005000000000e+01 9.697756439369e-01 
3.005000000000e+01 9.697756439369e-01 
3.005000000000e+01 9.697756439369e-01 
3.007500000000e+01 9.507134089444e-01 
3.007500000000e+01 9.507134089444e-01 
3.007500000000e+01 9.507134089444e-01 
3.007500000000e+01 9.507134089444e-01 
3.007500000000e+01 9.507134089444e-01 
3.010000000000e+01 9.315621650298e-01 
3.010000000000e+01 9.315621650298e-01 
3.010000000000e+01 9.315621650298e-01 
3.010000000000e+01 9.315621650298e-01 
3.010000000000e+01 9.315621650298e-01 
3.012500000000e+01 9.128758324042e-01 
3.012500000000e+01 9.128758324042e-01 
3.012500000000e+01 9.128758324042e-01 
3.012500000000e+01 9.128758324042e-01 
3.012500000000e+01 9.128758324042e-01 
3.015000000000e+01 8.949248043380e-01 
3.015000000000e+01 8.949248043380e-01 
3.015000000000e+01 8.949248043380e-01 
3.015000000000e+01 8.949248043380e-01 
3.015000000000e+01 8.949248043380e-01 
3.017500000000e+01 8.778290027968e-01 
3.017500000000e+01 8.778290027968e-01 
3.017500000000e+01 8.778290027968e-01 
3.017500000000e+01 8.778290027968e-01 
3.017500000000e+01 8.778290027968e-01 
3.020000000000e+01 8.616255702900e-01 
3.020000000000e+01 8.616255702900e-01 
3.020000000000e+01 8.616255702900e-01 
3.020000000000e+01 8.616255702900e-01 
3.020000000000e+01 8.616255702900e-01 
3.022500000000e+01 8.463059583920e-01 
3.022500000000e+01 8.463059583920e-01 
3.022500000000e+01 8.463059583920e-01 
3.022500000000e+01 8.463059583920e-01 
3.022500000000e+01 8.463059583920e-01 
3.025000000000e+01 8.318370344398e-01 
3.025000000000e+01 8.318370344398e-01 
3.025000000000e+01 8.318370344398e-01 
3.025000000000e+01 8.318370344398e-01 
3.025000000000e+01 8.318370344398e-01 
3.027500000000e+01 8.181733156316e-01 
3.027500000000e+01 8.181733156316e-01 
3.027500000000e+01 8.181733156316e-01 
3.027500000000e+01 8.181733156316e-01 
3.027500000000e+01 8.181733156316e-01 
3.030000000000e+01 8.052640970350e-01 
3.030000000000e+01 8.052640970350e-01 
3.030000000000e+01 8.052640970350e-01 
3.030000000000e+01 8.052640970350e-01 
3.030000000000e+01 8.052640970350e-01 
3.032500000000e+01 7.930575753856e-01 
3.032500000000e+01 7.930575753856e-01 
3.032500000000e+01 7.930575753856e-01 
3.032500000000e+01 7.930575753856e-01 
3.032500000000e+01 7.930575753856e-01 
3.035000000000e+01 7.815031815402e-01 
3.035000000000e+01 7.815031815402e-01 
3.035000000000e+01 7.815031815402e-01 
3.035000000000e+01 7.815031815402e-01 
3.035000000000e+01 7.815031815402e-01 
3.037500000000e+01 7.705528376764e-01 
3.037500000000e+01 7.705528376764e-01 
3.037500000000e+01 7.705528376764e-01 
3.037500000000e+01 7.705528376764e-01 
3.037500000000e+01 7.705528376764e-01 
3.040000000000e+01 7.601615689674e-01 
3.040000000000e+01 7.601615689674e-01 
3.040000000000e+01 7.601615689674e-01 
3.040000000000e+01 7.601615689674e-01 
3.040000000000e+01 7.601615689674e-01 
3.042500000000e+01 7.502877306002e-01 
3.042500000000e+01 7.502877306002e-01 
3.042500000000e+01 7.502877306002e-01 
3.042500000000e+01 7.502877306002e-01 
3.042500000000e+01 7.502877306002e-01 
3.045000000000e+01 7.408930096824e-01 
3.045000000000e+01 7.408930096824e-01 
3.045000000000e+01 7.408930096824e-01 
3.045000000000e+01 7.408930096824e-01 
3.045000000000e+01 7.408930096824e-01 
3.047500000000e+01 7.319422999608e-01 
3.047500000000e+01 7.319422999608e-01 
3.047500000000e+01 7.319422999608e-01 
3.047500000000e+01 7.319422999608e-01 
3.047500000000e+01 7.319422999608e-01 
3.050000000000e+01 7.234035093991e-01 
3.050000000000e+01 7.234035093991e-01 
3.050000000000e+01 7.234035093991e-01 
3.050000000000e+01 7.234035093991e-01 
3.050000000000e+01 7.234035093991e-01 
3.052500000000e+01 7.152473371957e-01 
3.052500000000e+01 7.152473371957e-01 
3.052500000000e+01 7.152473371957e-01 
3.052500000000e+01 7.152473371957e-01 
3.052500000000e+01 7.152473371957e-01 
3.055000000000e+01 7.074470422112e-01 
3.055000000000e+01 7.074470422112e-01 
3.055000000000e+01 7.074470422112e-01 
3.055000000000e+01 7.074470422112e-01 
3.055000000000e+01 7.074470422112e-01 
3.057500000000e+01 6.999782156504e-01 
3.057500000000e+01 6.999782156504e-01 
3.057500000000e+01 6.999782156504e-01 
3.057500000000e+01 6.999782156504e-01 
3.057500000000e+01 6.999782156504e-01 
3.060000000000e+01 6.928185651596e-01 
3.060000000000e+01 6.928185651596e-01 
3.060000000000e+01 6.928185651596e-01 
3.060000000000e+01 6.928185651596e-01 
3.060000000000e+01 6.928185651596e-01 
3.062500000000e+01 6.859477139679e-01 
3.062500000000e+01 6.859477139679e-01 
3.062500000000e+01 6.859477139679e-01 
3.062500000000e+01 6.859477139679e-01 
3.062500000000e+01 6.859477139679e-01 
3.065000000000e+01 6.793470165436e-01 
3.065000000000e+01 6.793470165436e-01 
3.065000000000e+01 6.793470165436e-01 
3.065000000000e+01 6.793470165436e-01 
3.065000000000e+01 6.793470165436e-01 
3.067500000000e+01 6.729993909360e-01 
3.067500000000e+01 6.729993909360e-01 
3.067500000000e+01 6.729993909360e-01 
3.067500000000e+01 6.729993909360e-01 
3.067500000000e+01 6.729993909360e-01 
3.070000000000e+01 6.668891672206e-01 
3.070000000000e+01 6.668891672206e-01 
3.070000000000e+01 6.668891672206e-01 
3.070000000000e+01 6.668891672206e-01 
3.070000000000e+01 6.668891672206e-01 
3.072500000000e+01 6.610019510587e-01 
3.072500000000e+01 6.610019510587e-01 
3.072500000000e+01 6.610019510587e-01 
3.072500000000e+01 6.610019510587e-01 
3.072500000000e+01 6.610019510587e-01 
3.075000000000e+01 6.553245011865e-01 
3.075000000000e+01 6.553245011865e-01 
3.075000000000e+01 6.553245011865e-01 
3.075000000000e+01 6.553245011865e-01 
3.075000000000e+01 6.553245011865e-01 
3.077500000000e+01 6.498446195878e-01 
3.077500000000e+01 6.498446195878e-01 
3.077500000000e+01 6.498446195878e-01 
3.077500000000e+01 6.498446195878e-01 
3.077500000000e+01 6.498446195878e-01 
3.080000000000e+01 6.445510531188e-01 
3.080000000000e+01 6.445510531188e-01 
3.080000000000e+01 6.445510531188e-01 
3.080000000000e+01 6.445510531188e-01 
3.080000000000e+01 6.445510531188e-01 
3.082500000000e+01 6.394334054150e-01 
3.082500000000e+01 6.394334054150e-01 
3.082500000000e+01 6.394334054150e-01 
3.082500000000e+01 6.394334054150e-01 
3.082500000000e+01 6.394334054150e-01 
3.085000000000e+01 6.344820579917e-01 
3.085000000000e+01 6.344820579917e-01 
3.085000000000e+01 6.344820579917e-01 
3.085000000000e+01 6.344820579917e-01 
3.085000000000e+01 6.344820579917e-01 
3.087500000000e+01 6.296880995462e-01 
3.087500000000e+01 6.296880995462e-01 
3.087500000000e+01 6.296880995462e-01 
3.087500000000e+01 6.296880995462e-01 
3.087500000000e+01 6.296880995462e-01 
3.090000000000e+01 6.250432625624e-01 
3.090000000000e+01 6.250432625624e-01 
3.090000000000e+01 6.250432625624e-01 
3.090000000000e+01 6.250432625624e-01 
3.090000000000e+01 6.250432625624e-01 
3.092500000000e+01 6.205398664126e-01 
3.092500000000e+01 6.205398664126e-01 
3.092500000000e+01 6.205398664126e-01 
3.092500000000e+01 6.205398664126e-01 
3.092500000000e+01 6.205398664126e-01 
3.095000000000e+01 6.161707662369e-01 
3.095000000000e+01 6.161707662369e-01 
3.095000000000e+01 6.161707662369e-01 
3.095000000000e+01 6.161707662369e-01 
3.095000000000e+01 6.161707662369e-01 
3.097500000000e+01 6.119293069613e-01 
3.097500000000e+01 6.119293069613e-01 
3.097500000000e+01 6.119293069613e-01 
3.097500000000e+01 6.119293069613e-01 
3.097500000000e+01 6.119293069613e-01 
3.100000000000e+01 6.078092818871e-01 
3.100000000000e+01 6.078092818871e-01 
3.100000000000e+01 6.078092818871e-01 
3.100000000000e+01 6.078092818871e-01 
3.100000000000e+01 6.078092818871e-01 
3.102500000000e+01 6.038048953494e-01 
3.102500000000e+01 6.038048953494e-01 
3.102500000000e+01 6.038048953494e-01 
3.102500000000e+01 6.038048953494e-01 
3.102500000000e+01 6.038048953494e-01 
3.105000000000e+01 5.999107290013e-01 
3.105000000000e+01 5.999107290013e-01 
3.105000000000e+01 5.999107290013e-01 
3.105000000000e+01 5.999107290013e-01 
3.105000000000e+01 5.999107290013e-01 
3.107500000000e+01 5.961217113309e-01 
3.107500000000e+01 5.961217113309e-01 
3.107500000000e+01 5.961217113309e-01 
3.107500000000e+01 5.961217113309e-01 
3.107500000000e+01 5.961217113309e-01 
3.110000000000e+01 5.924330900627e-01 
3.110000000000e+01 5.924330900627e-01 
3.110000000000e+01 5.924330900627e-01 
3.110000000000e+01 5.924330900627e-01 
3.110000000000e+01 5.924330900627e-01 
3.112500000000e+01 5.888404071392e-01 
3.112500000000e+01 5.888404071392e-01 
3.112500000000e+01 5.888404071392e-01 
3.112500000000e+01 5.888404071392e-01 
3.112500000000e+01 5.888404071392e-01 
3.115000000000e+01 5.853394760078e-01 
3.115000000000e+01 5.853394760078e-01 
3.115000000000e+01 5.853394760078e-01 
3.115000000000e+01 5.853394760078e-01 
3.115000000000e+01 5.853394760078e-01 
3.117500000000e+01 5.819263609758e-01 
3.117500000000e+01 5.819263609758e-01 
3.117500000000e+01 5.819263609758e-01 
3.117500000000e+01 5.819263609758e-01 
3.117500000000e+01 5.819263609758e-01 
3.120000000000e+01 5.785973584173e-01 
3.120000000000e+01 5.785973584173e-01 
3.120000000000e+01 5.785973584173e-01 
3.120000000000e+01 5.785973584173e-01 
3.120000000000e+01 5.785973584173e-01 
3.122500000000e+01 5.753489796460e-01 
3.122500000000e+01 5.753489796460e-01 
3.122500000000e+01 5.753489796460e-01 
3.122500000000e+01 5.753489796460e-01 
3.122500000000e+01 5.753489796460e-01 
3.125000000000e+01 5.721779352840e-01 
3.125000000000e+01 5.721779352840e-01 
3.125000000000e+01 5.721779352840e-01 
3.125000000000e+01 5.721779352840e-01 
3.125000000000e+01 5.721779352840e-01 
3.127500000000e+01 5.690811209785e-01 
3.127500000000e+01 5.690811209785e-01 
3.127500000000e+01 5.690811209785e-01 
3.127500000000e+01 5.690811209785e-01 
3.127500000000e+01 5.690811209785e-01 
3.130000000000e+01 5.660556043336e-01 
3.130000000000e+01 5.660556043336e-01 
3.130000000000e+01 5.660556043336e-01 
3.130000000000e+01 5.660556043336e-01 
3.130000000000e+01 5.660556043336e-01 
3.132500000000e+01 5.630986129391e-01 
3.132500000000e+01 5.630986129391e-01 
3.132500000000e+01 5.630986129391e-01 
3.132500000000e+01 5.630986129391e-01 
3.132500000000e+01 5.630986129391e-01 
3.135000000000e+01 5.602075233904e-01 
3.135000000000e+01 5.602075233904e-01 
3.135000000000e+01 5.602075233904e-01 
3.135000000000e+01 5.602075233904e-01 
3.135000000000e+01 5.602075233904e-01 
3.137500000000e+01 5.573798512060e-01 
3.137500000000e+01 5.573798512060e-01 
3.137500000000e+01 5.573798512060e-01 
3.137500000000e+01 5.573798512060e-01 
3.137500000000e+01 5.573798512060e-01 
3.140000000000e+01 5.546132415581e-01 
3.140000000000e+01 5.546132415581e-01 
3.140000000000e+01 5.546132415581e-01 
3.140000000000e+01 5.546132415581e-01 
3.140000000000e+01 5.546132415581e-01 
3.142500000000e+01 5.519054607414e-01 
3.142500000000e+01 5.519054607414e-01 
3.142500000000e+01 5.519054607414e-01 
3.142500000000e+01 5.519054607414e-01 
3.142500000000e+01 5.519054607414e-01 
3.145000000000e+01 5.492543883110e-01 
3.145000000000e+01 5.492543883110e-01 
3.145000000000e+01 5.492543883110e-01 
3.145000000000e+01 5.492543883110e-01 
3.145000000000e+01 5.492543883110e-01 
3.147500000000e+01 5.466580098318e-01 
3.147500000000e+01 5.466580098318e-01 
3.147500000000e+01 5.466580098318e-01 
3.147500000000e+01 5.466580098318e-01 
3.147500000000e+01 5.466580098318e-01 
3.150000000000e+01 5.441144101810e-01 
3.150000000000e+01 5.441144101810e-01 
3.150000000000e+01 5.441144101810e-01 
3.150000000000e+01 5.441144101810e-01 
3.150000000000e+01 5.441144101810e-01 
3.152500000000e+01 5.416217673588e-01 
3.152500000000e+01 5.416217673588e-01 
3.152500000000e+01 5.416217673588e-01 
3.152500000000e+01 5.416217673588e-01 
3.152500000000e+01 5.416217673588e-01 
3.155000000000e+01 5.391783467591e-01 
3.155000000000e+01 5.391783467591e-01 
3.155000000000e+01 5.391783467591e-01 
3.155000000000e+01 5.391783467591e-01 
3.155000000000e+01 5.391783467591e-01 
3.157500000000e+01 5.367824958643e-01 
3.157500000000e+01 5.367824958643e-01 
3.157500000000e+01 5.367824958643e-01 
3.157500000000e+01 5.367824958643e-01 
3.157500000000e+01 5.367824958643e-01 
3.160000000000e+01 5.344326393247e-01 
3.160000000000e+01 5.344326393247e-01 
3.160000000000e+01 5.344326393247e-01 
3.160000000000e+01 5.344326393247e-01 
3.160000000000e+01 5.344326393247e-01 
3.162500000000e+01 5.321272743928e-01 
3.162500000000e+01 5.321272743928e-01 
3.162500000000e+01 5.321272743928e-01 
3.162500000000e+01 5.321272743928e-01 
3.162500000000e+01 5.321272743928e-01 
3.165000000000e+01 5.298649666811e-01 
3.165000000000e+01 5.298649666811e-01 
3.165000000000e+01 5.298649666811e-01 
3.165000000000e+01 5.298649666811e-01 
3.165000000000e+01 5.298649666811e-01 
3.167500000000e+01 5.276443462180e-01 
3.167500000000e+01 5.276443462180e-01 
3.167500000000e+01 5.276443462180e-01 
3.167500000000e+01 5.276443462180e-01 
3.167500000000e+01 5.276443462180e-01 
3.170000000000e+01 5.254641037767e-01 
3.170000000000e+01 5.254641037767e-01 
3.170000000000e+01 5.254641037767e-01 
3.170000000000e+01 5.254641037767e-01 
3.170000000000e+01 5.254641037767e-01 
3.172500000000e+01 5.233229874560e-01 
3.172500000000e+01 5.233229874560e-01 
3.172500000000e+01 5.233229874560e-01 
3.172500000000e+01 5.233229874560e-01 
3.172500000000e+01 5.233229874560e-01 
3.175000000000e+01 5.212197994921e-01 
3.175000000000e+01 5.212197994921e-01 
3.175000000000e+01 5.212197994921e-01 
3.175000000000e+01 5.212197994921e-01 
3.175000000000e+01 5.212197994921e-01 
3.177500000000e+01 5.191533932842e-01 
3.177500000000e+01 5.191533932842e-01 
3.177500000000e+01 5.191533932842e-01 
3.177500000000e+01 5.191533932842e-01 
3.177500000000e+01 5.191533932842e-01 
3.180000000000e+01 5.171226706164e-01 
3.180000000000e+01 5.171226706164e-01 
3.180000000000e+01 5.171226706164e-01 
3.180000000000e+01 5.171226706164e-01 
3.180000000000e+01 5.171226706164e-01 
3.182500000000e+01 5.151265790614e-01 
3.182500000000e+01 5.151265790614e-01 
3.182500000000e+01 5.151265790614e-01 
3.182500000000e+01 5.151265790614e-01 
3.182500000000e+01 5.151265790614e-01 
3.185000000000e+01 5.131641095520e-01 
3.185000000000e+01 5.131641095520e-01 
3.185000000000e+01 5.131641095520e-01 
3.185000000000e+01 5.131641095520e-01 
3.185000000000e+01 5.131641095520e-01 
3.187500000000e+01 5.112342941078e-01 
3.187500000000e+01 5.112342941078e-01 
3.187500000000e+01 5.112342941078e-01 
3.187500000000e+01 5.112342941078e-01 
3.187500000000e+01 5.112342941078e-01 
3.190000000000e+01 5.093362037054e-01 
3.190000000000e+01 5.093362037054e-01 
3.190000000000e+01 5.093362037054e-01 
3.190000000000e+01 5.093362037054e-01 
3.190000000000e+01 5.093362037054e-01 
3.192500000000e+01 5.074689462822e-01 
3.192500000000e+01 5.074689462822e-01 
3.192500000000e+01 5.074689462822e-01 
3.192500000000e+01 5.074689462822e-01 
3.192500000000e+01 5.074689462822e-01 
3.195000000000e+01 5.056316648631e-01 
3.195000000000e+01 5.056316648631e-01 
3.195000000000e+01 5.056316648631e-01 
3.195000000000e+01 5.056316648631e-01 
3.195000000000e+01 5.056316648631e-01 
3.197500000000e+01 5.038235358020e-01 
3.197500000000e+01 5.038235358020e-01 
3.197500000000e+01 5.038235358020e-01 
3.197500000000e+01 5.038235358020e-01 
3.197500000000e+01 5.038235358020e-01 
3.200000000000e+01 5.017064510240e-01 
3.200000000000e+01 5.017084545982e-01 
3.200000000000e+01 5.017094545869e-01 
3.200000000000e+01 5.017074534102e-01 
3.200000000000e+01 5.017104533752e-01 
3.260800273827e+01 4.653362080100e-01 
3.260900308055e+01 4.652845034172e-01 
3.261000342283e+01 4.652328229056e-01 
3.261100376512e+01 4.651811664565e-01 
3.261200410740e+01 4.651295340511e-01 
3.321600547654e+01 4.386970854165e-01 
3.321800616110e+01 4.386192841924e-01 
3.322000684567e+01 4.385415450494e-01 
3.322200753024e+01 4.384638679022e-01 
3.322400821480e+01 4.383862526655e-01 
3.382400821480e+01 4.178187734624e-01 
3.382700924165e+01 4.177258650254e-01 
3.383001026850e+01 4.176330510880e-01 
3.383301129535e+01 4.175403314834e-01 
3.383601232221e+01 4.174477060452e-01 
3.443201095307e+01 4.008338590941e-01 
3.443601232221e+01 4.007317771575e-01 
3.444001369134e+01 4.006298152726e-01 
3.444401506047e+01 4.005279731938e-01 
3.444801642961e+01 4.004262506761e-01 
3.504001369134e+01 3.866221180904e-01 
3.504501540276e+01 3.865143047334e-01 
3.505001711417e+01 3.864066312068e-01 
3.505501882559e+01 3.862990971947e-01 
3.506002053701e+01 3.861917023824e-01 
 TITLE = "Profiles along polylines"
 VARIABLES = "DIST" "SATURATION1" 
 ZONE T="TIME=1.797693134862e+308"
4.001369133888e-02 1.000000000000e+00 
4.501540275624e-02 1.000000000000e+00 
5.001711417360e-02 1.000000000000e+00 
5.501882559096e-02 1.000000000000e+00 
6.002053700832e-02 1.000000000000e+00 
1.038679901627e+00 1.000000000000e+00 
1.043514889331e+00 1.000000000000e+00 
1.048349877034e+00 1.000000000000e+00 
1.053184864738e+00 1.000000000000e+00 
1.058019852441e+00 1.000000000000e+00 
2.037346111915e+00 1.000000000000e+00 
2.042014375905e+00 1.000000000000e+00 
2.046682639894e+00 1.000000000000e+00 
2.051350903884e+00 1.000000000000e+00 
2.056019167873e+00 1.000000000000e+00 
3.036012322205e+00 1.000000000000e+00 
3.040513862480e+00 1.000000000000e+00 
3.045015402756e+00 1.000000000000e+00 
3.049516943031e+00 1.000000000000e+00 
3.054018483307e+00 1.000000000000e+00 
4.034678532493e+00 1.000000000000e+00 
4.039013349055e+00 1.000000000000e+00 
4.043348165617e+00 1.000000000000e+00 
4.047682982179e+00 1.000000000000e+00 
4.052017798740e+00 1.000000000000e+00 
5.033344742781e+00 1.000000000000e+00 
5.037512835629e+00 1.000000000000e+00 
5.041680928477e+00 1.000000000000e+00 
5.045849021325e+00 1.000000000000e+00 
5.050017114172e+00 1.000000000000e+00 
6.032010953069e+00 1.000000000000e+00 
6.036012322203e+00 1.000000000000e+00 
6.040013691337e+00 1.000000000000e+00 
6.044015060471e+00 1.000000000000e+00 
6.048016429605e+00 1.000000000000e+00 
7.030677163357e+00 1.000000000000e+00 
7.034511808777e+00 1.000000000000e+00 
7.038346454197e+00 1.000000000000e+00 
7.042181099617e+00 1.000000000000e+00 
7.046015745037e+00 1.000000000000e+00 
8.029343373645e+00 1.000000000000e+00 
8.033011295351e+00 1.000000000000e+00 
8.036679217057e+00 1.000000000000e+00 
8.040347138763e+00 1.000000000000e+00 
8.044015060469e+00 1.000000000000e+00 
9.028009583930e+00 1.000000000000e+00 
9.031510781922e+00 1.000000000000e+00 
9.035011979914e+00 1.000000000000e+00 
9.038513177906e+00 1.000000000000e+00 
9.042014375898e+00 1.000000000000e+00 
1.002667579421e+01 1.000000000000e+00 
1.003001026849e+01 1.000000000000e+00 
1.003334474277e+01 1.000000000000e+00 
1.003667921705e+01 1.000000000000e+00 
1.004001369133e+01 1.000000000000e+00 
1.102534200450e+01 1.000000000000e+00 
1.102850975506e+01 1.000000000000e+00 
1.103167750563e+01 1.000000000000e+00 
1.103484525619e+01 1.000000000000e+00 
1.103801300676e+01 1.000000000000e+00 
1.202400821478e+01 1.000000000000e+00 
1.202700924163e+01 1.000000000000e+00 
1.203001026849e+01 1.000000000000e+00 
1.203301129534e+01 1.000000000000e+00 
1.203601232219e+01 1.000000000000e+00 
1.302267442507e+01 1.000000000000e+00 
1.302550872821e+01 1.000000000000e+00 
1.302834303134e+01 1.000000000000e+00 
1.303117733448e+01 1.000000000000e+00 
1.303401163762e+01 1.000000000000e+00 
1.402134063535e+01 1.000000000000e+00 
1.402400821478e+01 1.000000000000e+00 
1.402667579420e+01 1.000000000000e+00 
1.402934337362e+01 1.000000000000e+00 
1.403201095304e+01 1.000000000000e+00 
1.502000684564e+01 1.000000000000e+00 
1.502250770135e+01 1.000000000000e+00 
1.502500855706e+01 1.000000000000e+00 
1.502750941277e+01 1.000000000000e+00 
1.503001026847e+01 1.000000000000e+00 
1.601867305593e+01 1.000000000000e+00 
1.602100718792e+01 1.000000000000e+00 
1.602334131992e+01 1.000000000000e+00 
1.602567545191e+01 1.000000000000e+00 
1.602800958391e+01 1.000000000000e+00 
1.701733926622e+01 1.000000000000e+00 
1.701950667450e+01 1.000000000000e+00 
1.702167408278e+01 1.000000000000e+00 
1.702384149106e+01 1.000000000000e+00 
1.702600889934e+01 1.000000000000e+00 
1.801600547651e+01 1.000000000000e+00 
1.801800616108e+01 1.000000000000e+00 
1.802000684564e+01 1.000000000000e+00 
1.802200753021e+01 1.000000000000e+00 
1.802400821478e+01 1.000000000000e+00 
1.901467168680e+01 1.000000000000e+00 
1.901650564765e+01 1.000000000000e+00 
1.901833960851e+01 1.000000000000e+00 
1.902017356936e+01 1.000000000000e+00 
1.902200753021e+01 1.000000000000e+00 
2.001333789709e+01 1.000000000000e+00 
2.001500513423e+01 1.000000000000e+00 
2.001667237137e+01 1.000000000000e+00 
2.001833960851e+01 1.000000000000e+00 
2.002000684565e+01 1.000000000000e+00 
2.101200410738e+01 1.000000000000e+00 
2.101350462081e+01 1.000000000000e+00 
2.101500513423e+01 1.000000000000e+00 
2.101650564766e+01 1.000000000000e+00 
2.101800616108e+01 1.000000000000e+00 
2.201067031767e+01 1.000000000000e+00 
2.201200410739e+01 1.000000000000e+00 
2.201333789710e+01 1.000000000000e+00 
2.201467168681e+01 1.000000000000e+00 
2.201600547652e+01 1.000000000000e+00 
2.300933652796e+01 1.000000000000e+00 
2.301050359396e+01 1.000000000000e+00 
2.301167065996e+01 1.000000000000e+00 
2.301283772596e+01 1.000000000000e+00 
2.301400479195e+01 1.000000000000e+00 
2.400800273826e+01 1.000000000000e+00 
2.400900308054e+01 1.000000000000e+00 
2.401000342282e+01 1.000000000000e+00 
2.401100376511e+01 1.000000000000e+00 
2.401200410739e+01 1.000000000000e+00 
2.500666894855e+01 1.000000000000e+00 
2.500750256712e+01 1.000000000000e+00 
2.500833618569e+01 1.000000000000e+00 
2.500916980425e+01 1.000000000000e+00 
2.501000342282e+01 1.000000000000e+00 
2.600533515884e+01 1.000000000000e+00 
2.600600205369e+01 1.000000000000e+00 
2.600666894855e+01 1.000000000000e+00 
2.600733584340e+01 1.000000000000e+00 
2.600800273826e+01 1.000000000000e+00 
2.700400136913e+01 1.000000000000e+00 
2.700450154027e+01 1.000000000000e+00 
2.700500171141e+01 1.000000000000e+00 
2.700550188255e+01 1.000000000000e+00 
2.700600205369e+01 1.000000000000e+00 
2.800266757942e+01 1.000000000000e+00 
2.800300102685e+01 1.000000000000e+00 
2.800333447427e+01 1.000000000000e+00 
2.800366792170e+01 1.000000000000e+00 
2.800400136913e+01 1.000000000000e+00 
2.900133378971e+01 1.000000000000e+00 
2.900150051342e+01 1.000000000000e+00 
2.900166723714e+01 1.000000000000e+00 
2.900183396085e+01 1.000000000000e+00 
2.900200068456e+01 1.000000000000e+00 
3.000000000000e+01 1.000000000000e+00 
3.000000000000e+01 1.000000000000e+00 
3.000000000000e+01 1.000000000000e+00 
3.000000000000e+01 1.000000000000e+00 
3.000000000000e+01 1.000000000000e+00 
3.002500000000e+01 1.000000000000e+00 
3.002500000000e+01 1.000000000000e+00 
3.002500000000e+01 1.000000000000e+00 
3.002500000000e+01 1.000000000000e+00 
3.002500000000e+01 1.000000000000e+00 
3.005000000000e+01 1.000000000000e+00 
3.005000000000e+01 1.000000000000e+00 
3.005000000000e+01 1.000000000000e+00 
3.005000000000e+01 1.000000000000e+00 
3.005000000000e+01 1.000000000000e+00 
3.007500000000e+01 9.999988950578e-01 
3.007500000000e+01 1.000000000000e+00 
3.007500000000e+01 1.000000000000e+00 
3.007500000000e+01 1.000000000000e+00 
3.007500000000e+01 1.000000000000e+00 
3.010000000000e+01 1.000000000000e+00 
3.010000000000e+01 1.000000000000e+00 
3.010000000000e+01 1.000000000000e+00 
3.010000000000e+01 9.999965105325e-01 
3.010000000000e+01 1.000000000000e+00 
3.012500000000e+01 9.987818205878e-01 
3.012500000000e+01 9.890127325661e-01 
3.012500000000e+01 9.962282517239e-01 
3.012500000000e+01 9.929722791844e-01 
3.012500000000e+01 1.000000000000e+00 
3.015000000000e+01 9.868234843354e-01 
3.015000000000e+01 9.713455283084e-01 
3.015000000000e+01 9.799020161593e-01 