 TITLE = "Profiles along polylines"
 VARIABLES = "DIST" "SATURATION1" 
 ZONE T="TIME=0.000000000000e+00"
5.363712481429e+00 1.000000000000e+00 
5.383715576963e+00 1.000000000000e+00 
5.403718672498e+00 1.000000000000e+00 
5.423721768032e+00 1.000000000000e+00 
5.443724863566e+00 1.000000000000e+00 
6.184922065381e+00 1.000000000000e+00 
6.204258391064e+00 1.000000000000e+00 
6.223594716748e+00 1.000000000000e+00 
6.242931042431e+00 1.000000000000e+00 
6.262267368114e+00 1.000000000000e+00 
7.006131649333e+00 1.000000000000e+00 
7.024801205165e+00 1.000000000000e+00 
7.043470760997e+00 1.000000000000e+00 
7.062140316829e+00 1.000000000000e+00 
7.080809872661e+00 1.000000000000e+00 
7.827341233286e+00 1.000000000000e+00 
7.845344019267e+00 1.000000000000e+00 
7.863346805248e+00 1.000000000000e+00 
7.881349591229e+00 1.000000000000e+00 
7.899352377209e+00 1.000000000000e+00 
8.648550817238e+00 1.000000000000e+00 
8.665886833368e+00 1.000000000000e+00 
8.683222849498e+00 1.000000000000e+00 
8.700558865628e+00 1.000000000000e+00 
8.717894881757e+00 1.000000000000e+00 
9.469760401190e+00 1.000000000000e+00 
9.486429647469e+00 1.000000000000e+00 
9.503098893747e+00 1.000000000000e+00 
9.519768140026e+00 1.000000000000e+00 
9.536437386305e+00 1.000000000000e+00 
1.029096998514e+01 1.000000000000e+00 
1.030697246157e+01 1.000000000000e+00 
1.032297493800e+01 1.000000000000e+00 
1.033897741442e+01 1.000000000000e+00 
1.035497989085e+01 1.000000000000e+00 
1.111217956909e+01 1.000000000000e+00 
1.112751527567e+01 1.000000000000e+00 
1.114285098225e+01 1.000000000000e+00 
1.115818668882e+01 1.000000000000e+00 
1.117352239540e+01 1.000000000000e+00 
1.193338915305e+01 1.000000000000e+00 
1.194805808977e+01 1.000000000000e+00 
1.196272702650e+01 1.000000000000e+00 
1.197739596322e+01 1.000000000000e+00 
1.199206489995e+01 1.000000000000e+00 
1.275459873700e+01 1.000000000000e+00 
1.276860090387e+01 1.000000000000e+00 
1.278260307074e+01 1.000000000000e+00 
1.279660523762e+01 1.000000000000e+00 
1.281060740449e+01 1.000000000000e+00 
1.357580832095e+01 1.000000000000e+00 
1.358914371797e+01 1.000000000000e+00 
1.360247911499e+01 1.000000000000e+00 
1.361581451201e+01 1.000000000000e+00 
1.362914990904e+01 1.000000000000e+00 
1.439701790490e+01 1.000000000000e+00 
1.440968653207e+01 1.000000000000e+00 
1.442235515924e+01 1.000000000000e+00 
1.443502378641e+01 1.000000000000e+00 
1.444769241358e+01 1.000000000000e+00 
1.521822748885e+01 1.000000000000e+00 
1.523022934617e+01 1.000000000000e+00 
1.524223120349e+01 1.000000000000e+00 
1.525423306081e+01 1.000000000000e+00 
1.526623491813e+01 1.000000000000e+00 
1.603943707280e+01 1.000000000000e+00 
1.605077216027e+01 1.000000000000e+00 
1.606210724773e+01 1.000000000000e+00 
1.607344233520e+01 1.000000000000e+00 
1.608477742267e+01 1.000000000000e+00 
1.686064665675e+01 1.000000000000e+00 
1.687131497436e+01 1.000000000000e+00 
1.688198329198e+01 1.000000000000e+00 
1.689265160960e+01 1.000000000000e+00 
1.690331992722e+01 1.000000000000e+00 
1.768185624070e+01 1.000000000000e+00 
1.769185778846e+01 1.000000000000e+00 
1.770185933623e+01 1.000000000000e+00 
1.771186088400e+01 1.000000000000e+00 
1.772186243176e+01 1.000000000000e+00 
1.850306582465e+01 1.000000000000e+00 
1.851240060257e+01 1.000000000000e+00 
1.852173538048e+01 1.000000000000e+00 
1.853107015840e+01 1.000000000000e+00 
1.854040493631e+01 1.000000000000e+00 
1.932427540860e+01 1.000000000000e+00 
1.933294341667e+01 1.000000000000e+00 
1.934161142473e+01 1.000000000000e+00 
1.935027943280e+01 1.000000000000e+00 
1.935894744086e+01 1.000000000000e+00 
2.014548499256e+01 1.000000000000e+00 
2.015348623077e+01 1.000000000000e+00 
2.016148746898e+01 1.000000000000e+00 
2.016948870720e+01 1.000000000000e+00 
2.017748994541e+01 1.000000000000e+00 
2.096669457651e+01 1.000000000000e+00 
2.097402904487e+01 1.000000000000e+00 
2.098136351324e+01 1.000000000000e+00 
2.098869798160e+01 1.000000000000e+00 
2.099603244996e+01 1.000000000000e+00 
2.178790416046e+01 1.000000000000e+00 
2.179457185898e+01 1.000000000000e+00 
2.180123955749e+01 1.000000000000e+00 
2.180790725600e+01 1.000000000000e+00 
2.181457495451e+01 1.000000000000e+00 
2.260911374442e+01 1.000000000000e+00 
2.261511467308e+01 1.000000000000e+00 
2.262111560174e+01 1.000000000000e+00 
2.262711653040e+01 1.000000000000e+00 
2.263311745906e+01 1.000000000000e+00 
2.343032332837e+01 1.000000000000e+00 
2.343565748718e+01 1.000000000000e+00 
2.344099164599e+01 1.000000000000e+00 
2.344632580480e+01 1.000000000000e+00 
2.345165996361e+01 1.000000000000e+00 
2.425153291232e+01 1.000000000000e+00 
2.425620030128e+01 1.000000000000e+00 
2.426086769024e+01 1.000000000000e+00 
2.426553507920e+01 1.000000000000e+00 
2.427020246816e+01 1.000000000000e+00 
2.507274249628e+01 1.000000000000e+00 
2.507674311539e+01 1.000000000000e+00 
2.508074373449e+01 1.000000000000e+00 
2.508474435360e+01 1.000000000000e+00 
2.508874497271e+01 1.000000000000e+00 
2.589395208023e+01 1.000000000000e+00 
2.589728592949e+01 1.000000000000e+00 
2.590061977874e+01 1.000000000000e+00 
2.590395362800e+01 1.000000000000e+00 
2.590728747725e+01 1.000000000000e+00 
2.671516166419e+01 1.000000000000e+00 
2.671782874359e+01 1.000000000000e+00 
2.672049582299e+01 1.000000000000e+00 
2.672316290240e+01 1.000000000000e+00 
2.672582998180e+01 1.000000000000e+00 
2.753637124814e+01 1.000000000000e+00 
2.753837155769e+01 1.000000000000e+00 
2.754037186725e+01 1.000000000000e+00 
2.754237217680e+01 1.000000000000e+00 
2.754437248635e+01 1.000000000000e+00 
2.835758083209e+01 1.000000000000e+00 
2.835891437179e+01 1.000000000000e+00 
2.836024791150e+01 1.000000000000e+00 
2.836158145120e+01 1.000000000000e+00 
2.836291499090e+01 1.000000000000e+00 
2.917879041605e+01 1.000000000000e+00 
2.917945718590e+01 1.000000000000e+00 
2.918012395575e+01 1.000000000000e+00 
2.918079072560e+01 1.000000000000e+00 
2.918145749545e+01 1.000000000000e+00 
3.000000000000e+01 1.000000000000e+00 
3.000000000000e+01 1.000000000000e+00 
3.000000000000e+01 1.000000000000e+00 
3.000000000000e+01 1.000000000000e+00 
3.000000000000e+01 1.000000000000e+00 
3.002500000000e+01 9.876207709446e-01 
3.002500000000e+01 9.876207709446e-01 
3.002500000000e+01 9.876207709446e-01 
3.002500000000e+01 9.876207709446e-01 
3.002500000000e+01 9.876207709446e-01 
3.005000000000e+01 9.697756439369e-01 
3.005000000000e+01 9.697756439369e-01 
3.005000000000e+01 9.697756439369e-01 
3.005000000000e+01 9.697756439369e-01 
3.005000000000e+01 9.697756439369e-01 
3.007500000000e+01 9.507134089444e-01 
3.007500000000e+01 9.507134089444e-01 
3.007500000000e+01 9.507134089444e-01 
3.007500000000e+01 9.507134089444e-01 
3.007500000000e+01 9.507134089444e-01 
3.010000000000e+01 9.315621650298e-01 
3.010000000000e+01 9.315621650298e-01 
3.010000000000e+01 9.315621650298e-01 
3.010000000000e+01 9.315621650298e-01 
3.010000000000e+01 9.315621650298e-01 
3.012500000000e+01 9.128758324042e-01 
3.012500000000e+01 9.128758324042e-01 
3.012500000000e+01 9.128758324042e-01 
3.012500000000e+01 9.128758324042e-01 
3.012500000000e+01 9.128758324042e-01 
3.015000000000e+01 8.949248043380e-01 
3.015000000000e+01 8.949248043380e-01 
3.015000000000e+01 8.949248043380e-01 
3.015000000000e+01 8.949248043380e-01 
3.015000000000e+01 8.949248043380e-01 
3.017500000000e+01 8.778290027968e-01 
3.017500000000e+01 8.778290027968e-01 
3.017500000000e+01 8.778290027968e-01 
3.017500000000e+01 8.778290027968e-01 
3.017500000000e+01 8.778290027968e-01 
3.020000000000e+01 8.616255702900e-01 
3.020000000000e+01 8.616255702900e-01 
3.020000000000e+01 8.616255702900e-01 
3.020000000000e+01 8.616255702900e-01 
3.020000000000e+01 8.616255702900e-01 
3.022500000000e+01 8.463059583920e-01 
3.022500000000e+01 8.463059583920e-01 
3.022500000000e+01 8.463059583920e-01 
3.022500000000e+01 8.463059583920e-01 
3.022500000000e+01 8.463059583920e-01 
3.025000000000e+01 8.318370344398e-01 
3.025000000000e+01 8.318370344398e-01 
3.025000000000e+01 8.318370344398e-01 
3.025000000000e+01 8.318370344398e-01 
3.025000000000e+01 8.318370344398e-01 
3.027500000000e+01 8.181733156316e-01 
3.027500000000e+01 8.181733156316e-01 
3.027500000000e+01 8.181733156316e-01 
3.027500000000e+01 8.181733156316e-01 
3.027500000000e+01 8.181733156316e-01 
3.030000000000e+01 8.052640970350e-01 
3.030000000000e+01 8.052640970350e-01 
3.030000000000e+01 8.052640970350e-01 
3.030000000000e+01 8.052640970350e-01 
3.030000000000e+01 8.052640970350e-01 
3.032500000000e+01 7.930575753856e-01 
3.032500000000e+01 7.930575753856e-01 
3.032500000000e+01 7.930575753856e-01 
3.032500000000e+01 7.930575753856e-01 
3.032500000000e+01 7.930575753856e-01 
3.035000000000e+01 7.815031815402e-01 
3.035000000000e+01 7.815031815402e-01 
3.035000000000e+01 7.815031815402e-01 
3.035000000000e+01 7.815031815402e-01 
3.035000000000e+01 7.815031815402e-01 
3.037500000000e+01 7.705528376764e-01 
3.037500000000e+01 7.705528376764e-01 
3.037500000000e+01 7.705528376764e-01 
3.037500000000e+01 7.705528376764e-01 
3.037500000000e+01 7.705528376764e-01 
3.040000000000e+01 7.601615689674e-01 
3.040000000000e+01 7.601615689674e-01 
3.040000000000e+01 7.601615689674e-01 
3.040000000000e+01 7.601615689674e-01 
3.040000000000e+01 7.601615689674e-01 
3.042500000000e+01 7.502877306002e-01 
3.042500000000e+01 7.502877306002e-01 
3.042500000000e+01 7.502877306002e-01 
3.042500000000e+01 7.502877306002e-01 
3.042500000000e+01 7.502877306002e-01 
3.045000000000e+01 7.408930096824e-01 
3.045000000000e+01 7.408930096824e-01 
3.045000000000e+01 7.408930096824e-01 
3.045000000000e+01 7.408930096824e-01 
3.045000000000e+01 7.408930096824e-01 
3.047500000000e+01 7.319422999608e-01 
3.047500000000e+01 7.319422999608e-01 
3.047500000000e+01 7.319422999608e-01 
3.047500000000e+01 7.319422999608e-01 
3.047500000000e+01 7.319422999608e-01 
3.050000000000e+01 7.234035093991e-01 
3.050000000000e+01 7.234035093991e-01 
3.050000000000e+01 7.234035093991e-01 
3.050000000000e+01 7.234035093991e-01 
3.050000000000e+01 7.234035093991e-01 
3.052500000000e+01 7.152473371957e-01 
3.052500000000e+01 7.152473371957e-01 
3.052500000000e+01 7.152473371957e-01 
3.052500000000e+01 7.152473371957e-01 
3.052500000000e+01 7.152473371957e-01 
3.055000000000e+01 7.074470422112e-01 
3.055000000000e+01 7.074470422112e-01 
3.055000000000e+01 7.074470422112e-01 
3.055000000000e+01 7.074470422112e-01 
3.055000000000e+01 7.074470422112e-01 
3.057500000000e+01 6.999782156504e-01 
3.057500000000e+01 6.999782156504e-01 
3.057500000000e+01 6.999782156504e-01 
3.057500000000e+01 6.999782156504e-01 
3.057500000000e+01 6.999782156504e-01 
3.060000000000e+01 6.928185651596e-01 
3.060000000000e+01 6.928185651596e-01 
3.060000000000e+01 6.928185651596e-01 
3.060000000000e+01 6.928185651596e-01 
3.060000000000e+01 6.928185651596e-01 
3.062500000000e+01 6.859477139679e-01 
3.062500000000e+01 6.859477139679e-01 
3.062500000000e+01 6.859477139679e-01 
3.062500000000e+01 6.859477139679e-01 
3.062500000000e+01 6.859477139679e-01 
3.065000000000e+01 6.793470165436e-01 
3.065000000000e+01 6.793470165436e-01 
3.065000000000e+01 6.793470165436e-01 
3.065000000000e+01 6.793470165436e-01 
3.065000000000e+01 6.793470165436e-01 
3.067500000000e+01 6.729993909360e-01 
3.067500000000e+01 6.729993909360e-01 
3.067500000000e+01 6.729993909360e-01 
3.067500000000e+01 6.729993909360e-01 
3.067500000000e+01 6.729993909360e-01 
3.070000000000e+01 6.668891672206e-01 
3.070000000000e+01 6.668891672206e-01 
3.070000000000e+01 6.668891672206e-01 
3.070000000000e+01 6.668891672206e-01 
3.070000000000e+01 6.668891672206e-01 
3.072500000000e+01 6.610019510587e-01 
3.072500000000e+01 6.610019510587e-01 
3.072500000000e+01 6.610019510587e-01 
3.072500000000e+01 6.610019510587e-01 
3.072500000000e+01 6.610019510587e-01 
3.075000000000e+01 6.553245011865e-01 
3.075000000000e+01 6.553245011865e-01 
3.075000000000e+01 6.553245011865e-01 
3.075000000000e+01 6.553245011865e-01 
3.075000000000e+01 6.553245011865e-01 
3.077500000000e+01 6.498446195878e-01 
3.077500000000e+01 6.498446195878e-01 
3.077500000000e+01 6.498446195878e-01 
3.077500000000e+01 6.498446195878e-01 
3.077500000000e+01 6.498446195878e-01 
3.080000000000e+01 6.445510531188e-01 
3.080000000000e+01 6.445510531188e-01 
3.080000000000e+01 6.445510531188e-01 
3.080000000000e+01 6.445510531188e-01 
3.080000000000e+01 6.445510531188e-01 
3.082500000000e+01 6.394334054150e-01 
3.082500000000e+01 6.394334054150e-01 
3.082500000000e+01 6.394334054150e-01 
3.082500000000e+01 6.394334054150e-01 
3.082500000000e+01 6.394334054150e-01 
3.085000000000e+01 6.344820579917e-01 
3.085000000000e+01 6.344820579917e-01 
3.085000000000e+01 6.344820579917e-01 
3.085000000000e+01 6.344820579917e-01 
3.085000000000e+01 6.344820579917e-01 
3.087500000000e+01 6.296880995462e-01 
3.087500000000e+01 6.296880995462e-01 
3.087500000000e+01 6.296880995462e-01 
3.087500000000e+01 6.296880995462e-01 
3.087500000000e+01 6.296880995462e-01 
3.090000000000e+01 6.250432625624e-01 
3.090000000000e+01 6.250432625624e-01 
3.090000000000e+01 6.250432625624e-01 
3.090000000000e+01 6.250432625624e-01 
3.090000000000e+01 6.250432625624e-01 
3.092500000000e+01 6.205398664126e-01 
3.092500000000e+01 6.205398664126e-01 
3.092500000000e+01 6.205398664126e-01 
3.092500000000e+01 6.205398664126e-01 
3.092500000000e+01 6.205398664126e-01 
3.095000000000e+01 6.161707662369e-01 
3.095000000000e+01 6.161707662369e-01 
3.095000000000e+01 6.161707662369e-01 
3.095000000000e+01 6.161707662369e-01 
3.095000000000e+01 6.161707662369e-01 
3.097500000000e+01 6.119293069613e-01 
3.097500000000e+01 6.119293069613e-01 
3.097500000000e+01 6.119293069613e-01 
3.097500000000e+01 6.119293069613e-01 
3.097500000000e+01 6.119293069613e-01 
3.100000000000e+01 6.078092818871e-01 
3.100000000000e+01 6.078092818871e-01 
3.100000000000e+01 6.078092818871e-01 
3.100000000000e+01 6.078092818871e-01 
3.100000000000e+01 6.078092818871e-01 
3.102500000000e+01 6.038048953494e-01 
3.102500000000e+01 6.038048953494e-01 
3.102500000000e+01 6.038048953494e-01 
3.102500000000e+01 6.038048953494e-01 
3.102500000000e+01 6.038048953494e-01 
3.105000000000e+01 5.999107290013e-01 
3.105000000000e+01 5.999107290013e-01 
3.105000000000e+01 5.999107290013e-01 
3.105000000000e+01 5.999107290013e-01 
3.105000000000e+01 5.999107290013e-01 
3.107500000000e+01 5.961217113309e-01 
3.107500000000e+01 5.961217113309e-01 
3.107500000000e+01 5.961217113309e-01 
3.107500000000e+01 5.961217113309e-01 
3.107500000000e+01 5.961217113309e-01 
3.110000000000e+01 5.924330900627e-01 
3.110000000000e+01 5.924330900627e-01 
3.110000000000e+01 5.924330900627e-01 
3.110000000000e+01 5.924330900627e-01 
3.110000000000e+01 5.924330900627e-01 
3.112500000000e+01 5.888404071392e-01 
3.112500000000e+01 5.888404071392e-01 
3.112500000000e+01 5.888404071392e-01 
3.112500000000e+01 5.888404071392e-01 
3.112500000000e+01 5.888404071392e-01 
3.115000000000e+01 5.853394760078e-01 
3.115000000000e+01 5.853394760078e-01 
3.115000000000e+01 5.853394760078e-01 
3.115000000000e+01 5.853394760078e-01 
3.115000000000e+01 5.853394760078e-01 
3.117500000000e+01 5.819263609758e-01 
3.117500000000e+01 5.819263609758e-01 
3.117500000000e+01 5.819263609758e-01 
3.117500000000e+01 5.819263609758e-01 
3.117500000000e+01 5.819263609758e-01 
3.120000000000e+01 5.785973584173e-01 
3.120000000000e+01 5.785973584173e-01 
3.120000000000e+01 5.785973584173e-01 
3.120000000000e+01 5.785973584173e-01 
3.120000000000e+01 5.785973584173e-01 
3.122500000000e+01 5.753489796460e-01 
3.122500000000e+01 5.753489796460e-01 
3.122500000000e+01 5.753489796460e-01 
3.122500000000e+01 5.753489796460e-01 
3.122500000000e+01 5.753489796460e-01 
3.125000000000e+01 5.721779352840e-01 
3.125000000000e+01 5.721779352840e-01 
3.125000000000e+01 5.721779352840e-01 
3.125000000000e+01 5.721779352840e-01 
3.125000000000e+01 5.721779352840e-01 
3.127500000000e+01 5.690811209785e-01 
3.127500000000e+01 5.690811209785e-01 
3.127500000000e+01 5.690811209785e-01 
3.127500000000e+01 5.690811209785e-01 
3.127500000000e+01 5.690811209785e-01 
3.130000000000e+01 5.660556043336e-01 
3.130000000000e+01 5.660556043336e-01 
3.130000000000e+01 5.660556043336e-01 
3.130000000000e+01 5.660556043336e-01 
3.130000000000e+01 5.660556043336e-01 
3.132500000000e+01 5.630986129391e-01 
3.132500000000e+01 5.630986129391e-01 
3.132500000000e+01 5.630986129391e-01 
3.132500000000e+01 5.630986129391e-01 
3.132500000000e+01 5.630986129391e-01 
3.135000000000e+01 5.602075233904e-01 
3.135000000000e+01 5.602075233904e-01 
3.135000000000e+01 5.602075233904e-01 
3.135000000000e+01 5.602075233904e-01 
3.135000000000e+01 5.602075233904e-01 
3.137500000000e+01 5.573798512060e-01 
3.137500000000e+01 5.573798512060e-01 
3.137500000000e+01 5.573798512060e-01 
3.137500000000e+01 5.573798512060e-01 
3.137500000000e+01 5.573798512060e-01 
3.140000000000e+01 5.546132415581e-01 
3.140000000000e+01 5.546132415581e-01 
3.140000000000e+01 5.546132415581e-01 
3.140000000000e+01 5.546132415581e-01 
3.140000000000e+01 5.546132415581e-01 
3.142500000000e+01 5.519054607414e-01 
3.142500000000e+01 5.519054607414e-01 
3.142500000000e+01 5.519054607414e-01 
3.142500000000e+01 5.519054607414e-01 
3.142500000000e+01 5.519054607414e-01 
3.145000000000e+01 5.492543883110e-01 
3.145000000000e+01 5.492543883110e-01 
3.145000000000e+01 5.492543883110e-01 
3.145000000000e+01 5.492543883110e-01 
3.145000000000e+01 5.492543883110e-01 
3.147500000000e+01 5.466580098318e-01 
3.147500000000e+01 5.466580098318e-01 
3.147500000000e+01 5.466580098318e-01 
3.147500000000e+01 5.466580098318e-01 
3.147500000000e+01 5.466580098318e-01 
3.150000000000e+01 5.441144101810e-01 
3.150000000000e+01 5.441144101810e-01 
3.150000000000e+01 5.441144101810e-01 
3.150000000000e+01 5.441144101810e-01 
3.150000000000e+01 5.441144101810e-01 
3.152500000000e+01 5.416217673588e-01 
3.152500000000e+01 5.416217673588e-01 
3.152500000000e+01 5.416217673588e-01 
3.152500000000e+01 5.416217673588e-01 
3.152500000000e+01 5.416217673588e-01 
3.155000000000e+01 5.391783467591e-01 
3.155000000000e+01 5.391783467591e-01 
3.155000000000e+01 5.391783467591e-01 
3.155000000000e+01 5.391783467591e-01 
3.155000000000e+01 5.391783467591e-01 
3.157500000000e+01 5.367824958643e-01 
3.157500000000e+01 5.367824958643e-01 
3.157500000000e+01 5.367824958643e-01 
3.157500000000e+01 5.367824958643e-01 
3.157500000000e+01 5.367824958643e-01 
3.160000000000e+01 5.344326393247e-01 
3.160000000000e+01 5.344326393247e-01 
3.160000000000e+01 5.344326393247e-01 
3.160000000000e+01 5.344326393247e-01 
3.160000000000e+01 5.344326393247e-01 
3.162500000000e+01 5.321272743928e-01 
3.162500000000e+01 5.321272743928e-01 
3.162500000000e+01 5.321272743928e-01 
3.162500000000e+01 5.321272743928e-01 
3.162500000000e+01 5.321272743928e-01 
3.165000000000e+01 5.298649666811e-01 
3.165000000000e+01 5.298649666811e-01 
3.165000000000e+01 5.298649666811e-01 
3.165000000000e+01 5.298649666811e-01 
3.165000000000e+01 5.298649666811e-01 
3.167500000000e+01 5.276443462180e-01 
3.167500000000e+01 5.276443462180e-01 
3.167500000000e+01 5.276443462180e-01 
3.167500000000e+01 5.276443462180e-01 
3.167500000000e+01 5.276443462180e-01 
3.170000000000e+01 5.254641037767e-01 
3.170000000000e+01 5.254641037767e-01 
3.170000000000e+01 5.254641037767e-01 
3.170000000000e+01 5.254641037767e-01 
3.170000000000e+01 5.254641037767e-01 
3.172500000000e+01 5.233229874560e-01 
3.172500000000e+01 5.233229874560e-01 
3.172500000000e+01 5.233229874560e-01 
3.172500000000e+01 5.233229874560e-01 
3.172500000000e+01 5.233229874560e-01 
3.175000000000e+01 5.212197994921e-01 
3.175000000000e+01 5.212197994921e-01 
3.175000000000e+01 5.212197994921e-01 
3.175000000000e+01 5.212197994921e-01 
3.175000000000e+01 5.212197994921e-01 
3.177500000000e+01 5.191533932842e-01 
3.177500000000e+01 5.191533932842e-01 
3.177500000000e+01 5.191533932842e-01 
3.177500000000e+01 5.191533932842e-01 
3.177500000000e+01 5.191533932842e-01 
3.180000000000e+01 5.171226706164e-01 
3.180000000000e+01 5.171226706164e-01 
3.180000000000e+01 5.171226706164e-01 
3.180000000000e+01 5.171226706164e-01 
3.180000000000e+01 5.171226706164e-01 
3.182500000000e+01 5.151265790614e-01 
3.182500000000e+01 5.151265790614e-01 
3.182500000000e+01 5.151265790614e-01 
3.182500000000e+01 5.151265790614e-01 
3.182500000000e+01 5.151265790614e-01 
3.185000000000e+01 5.131641095520e-01 
3.185000000000e+01 5.131641095520e-01 
3.185000000000e+01 5.131641095520e-01 
3.185000000000e+01 5.131641095520e-01 
3.185000000000e+01 5.131641095520e-01 
3.187500000000e+01 5.112342941078e-01 
3.187500000000e+01 5.112342941078e-01 
3.187500000000e+01 5.112342941078e-01 
3.187500000000e+01 5.112342941078e-01 
3.187500000000e+01 5.112342941078e-01 
3.190000000000e+01 5.093362037054e-01 
3.190000000000e+01 5.093362037054e-01 
3.190000000000e+01 5.093362037054e-01 
3.190000000000e+01 5.093362037054e-01 
3.190000000000e+01 5.093362037054e-01 
3.192500000000e+01 5.074689462822e-01 
3.192500000000e+01 5.074689462822e-01 
3.192500000000e+01 5.074689462822e-01 
3.192500000000e+01 5.074689462822e-01 
3.192500000000e+01 5.074689462822e-01 
3.195000000000e+01 5.056316648631e-01 
3.195000000000e+01 5.056316648631e-01 
3.195000000000e+01 5.056316648631e-01 
3.195000000000e+01 5.056316648631e-01 
3.195000000000e+01 5.056316648631e-01 
3.197500000000e+01 5.038235358020e-01 
3.197500000000e+01 5.038235358020e-01 
3.197500000000e+01 5.038235358020e-01 
3.197500000000e+01 5.038235358020e-01 
3.197500000000e+01 5.038235358020e-01 
3.200000000000e+01 5.001119752901e-01 
3.200000000000e+01 5.001266154217e-01 
3.200000000000e+01 5.001339241485e-01 
3.200000000000e+01 5.001192991273e-01 
3.200000000000e+01 5.001412252823e-01 
3.367274249629e+01 4.209984253503e-01 
3.367674311539e+01 4.208635317345e-01 
3.368074373450e+01 4.207288246773e-01 
3.368474435361e+01 4.205943037375e-01 
3.368874497271e+01 4.204599684755e-01 
3.534548499257e+01 3.796804764259e-01 
3.535348623079e+01 3.795199699145e-01 
3.536148746900e+01 3.793597785529e-01 
3.536948870721e+01 3.791999012670e-01 
3.537748994543e+01 3.790403369882e-01 
3.701822748886e+01 3.521967931897e-01 
3.703022934618e+01 3.520292325281e-01 
3.704223120350e+01 3.518620490227e-01 
3.705423306082e+01 3.516952411948e-01 
3.706623491814e+01 3.515288075737e-01 
3.869096998514e+01 3.321157479773e-01 
3.870697246157e+01 3.319474623966e-01 
3.872297493800e+01 3.317795854164e-01 
3.873897741443e+01 3.316121153066e-01 
3.875497989085e+01 3.314450503475e-01 
4.036371248143e+01 3.165264108022e-01 
4.038371557696e+01 3.163598096643e-01 
4.040371867250e+01 3.161936331454e-01 
4.042372176803e+01 3.160278793576e-01 
4.044372486357e+01 3.158625464249e-01 
 TITLE = "Profiles along polylines"
 VARIABLES = "DIST" "SATURATION1" 
 ZONE T="TIME=1.797693134862e+308"
5.363712481429e+00 1.000000000000e+00 
5.383715576963e+00 1.000000000000e+00 
5.403718672498e+00 1.000000000000e+00 
5.423721768032e+00 1.000000000000e+00 
5.443724863566e+00 1.000000000000e+00 
6.184922065381e+00 1.000000000000e+00 
6.204258391064e+00 1.000000000000e+00 
6.223594716748e+00 1.000000000000e+00 
6.242931042431e+00 1.000000000000e+00 
6.262267368114e+00 1.000000000000e+00 
7.006131649333e+00 1.000000000000e+00 
7.024801205165e+00 1.000000000000e+00 
7.043470760997e+00 1.000000000000e+00 
7.062140316829e+00 1.000000000000e+00 
7.080809872661e+00 1.000000000000e+00 
7.827341233286e+00 1.000000000000e+00 
7.845344019267e+00 1.000000000000e+00 
7.863346805248e+00 1.000000000000e+00 
7.881349591229e+00 1.000000000000e+00 
7.899352377209e+00 1.000000000000e+00 
8.648550817238e+00 1.000000000000e+00 
8.665886833368e+00 1.000000000000e+00 
8.683222849498e+00 1.000000000000e+00 
8.700558865628e+00 1.000000000000e+00 
8.717894881757e+00 1.000000000000e+00 
9.469760401190e+00 1.000000000000e+00 
9.486429647469e+00 1.000000000000e+00 
9.503098893747e+00 1.000000000000e+00 
9.519768140026e+00 1.000000000000e+00 
9.536437386305e+00 1.000000000000e+00 
1.029096998514e+01 1.000000000000e+00 
1.030697246157e+01 1.000000000000e+00 
1.032297493800e+01 1.000000000000e+00 
1.033897741442e+01 1.000000000000e+00 
1.035497989085e+01 1.000000000000e+00 
1.111217956909e+01 1.000000000000e+00 
1.112751527567e+01 1.000000000000e+00 
1.114285098225e+01 1.000000000000e+00 
1.115818668882e+01 1.000000000000e+00 
1.117352239540e+01 1.000000000000e+00 
1.193338915305e+01 1.000000000000e+00 
1.194805808977e+01 1.000000000000e+00 
1.196272702650e+01 1.000000000000e+00 
1.197739596322e+01 1.000000000000e+00 
1.199206489995e+01 1.000000000000e+00 
1.275459873700e+01 1.000000000000e+00 
1.276860090387e+01 1.000000000000e+00 
1.278260307074e+01 1.000000000000e+00 
1.279660523762e+01 1.000000000000e+00 
1.281060740449e+01 1.000000000000e+00 
1.357580832095e+01 1.000000000000e+00 
1.358914371797e+01 1.000000000000e+00 
1.360247911499e+01 1.000000000000e+00 
1.361581451201e+01 1.000000000000e+00 
1.362914990904e+01 1.000000000000e+00 
1.439701790490e+01 1.000000000000e+00 
1.440968653207e+01 1.000000000000e+00 
1.442235515924e+01 1.000000000000e+00 
1.443502378641e+01 1.000000000000e+00 
1.444769241358e+01 1.000000000000e+00 
1.521822748885e+01 1.000000000000e+00 
1.523022934617e+01 1.000000000000e+00 
1.524223120349e+01 1.000000000000e+00 
1.525423306081e+01 1.000000000000e+00 
1.526623491813e+01 1.000000000000e+00 
1.603943707280e+01 1.000000000000e+00 
1.605077216027e+01 1.000000000000e+00 
1.606210724773e+01 1.000000000000e+00 
1.607344233520e+01 1.000000000000e+00 
1.608477742267e+01 1.000000000000e+00 
1.686064665675e+01 1.000000000000e+00 
1.687131497436e+01 1.000000000000e+00 
1.688198329198e+01 1.000000000000e+00 
1.689265160960e+01 1.000000000000e+00 
1.690331992722e+01 1.000000000000e+00 
1.768185624070e+01 1.000000000000e+00 
1.769185778846e+01 1.000000000000e+00 
1.770185933623e+01 1.000000000000e+00 
1.771186088400e+01 1.000000000000e+00 
1.772186243176e+01 1.000000000000e+00 
1.850306582465e+01 1.000000000000e+00 
1.851240060257e+01 1.000000000000e+00 
1.852173538048e+01 1.000000000000e+00 
1.853107015840e+01 1.000000000000e+00 
1.854040493631e+01 1.000000000000e+00 
1.932427540860e+01 1.000000000000e+00 
1.933294341667e+01 1.000000000000e+00 
1.934161142473e+01 1.000000000000e+00 
1.935027943280e+01 1.000000000000e+00 
1.935894744086e+01 1.000000000000e+00 
2.014548499256e+01 1.000000000000e+00 
2.015348623077e+01 1.000000000000e+00 
2.016148746898e+01 1.000000000000e+00 
2.016948870720e+01 1.000000000000e+00 
2.017748994541e+01 1.000000000000e+00 
2.096669457651e+01 1.000000000000e+00 
2.097402904487e+01 1.000000000000e+00 
2.098136351324e+01 1.000000000000e+00 
2.098869798160e+01 1.000000000000e+00 
2.099603244996e+01 1.000000000000e+00 
2.178790416046e+01 1.000000000000e+00 
2.179457185898e+01 1.000000000000e+00 
2.180123955749e+01 1.000000000000e+00 
2.180790725600e+01 1.000000000000e+00 
2.181457495451e+01 1.000000000000e+00 
2.260911374442e+01 1.000000000000e+00 
2.261511467308e+01 1.000000000000e+00 
2.262111560174e+01 1.000000000000e+00 
2.262711653040e+01 1.000000000000e+00 
2.263311745906e+01 1.000000000000e+00 
2.343032332837e+01 1.000000000000e+00 
2.343565748718e+01 1.000000000000e+00 
2.344099164599e+01 1.000000000000e+00 
2.344632580480e+01 1.000000000000e+00 
2.345165996361e+01 1.000000000000e+00 
2.425153291232e+01 1.000000000000e+00 
2.425620030128e+01 1.000000000000e+00 
2.426086769024e+01 1.000000000000e+00 
2.426553507920e+01 1.000000000000e+00 
2.427020246816e+01 1.000000000000e+00 
2.507274249628e+01 1.000000000000e+00 
2.507674311539e+01 1.000000000000e+00 
2.508074373449e+01 1.000000000000e+00 
2.508474435360e+01 1.000000000000e+00 
2.508874497271e+01 1.000000000000e+00 
2.589395208023e+01 1.000000000000e+00 
2.589728592949e+01 1.000000000000e+00 
2.590061977874e+01 1.000000000000e+00 
2.590395362800e+01 1.000000000000e+00 
2.590728747725e+01 1.000000000000e+00 
2.671516166419e+01 1.000000000000e+00 
2.671782874359e+01 1.000000000000e+00 
2.672049582299e+01 1.000000000000e+00 
2.672316290240e+01 1.000000000000e+00 
2.672582998180e+01 1.000000000000e+00 
2.753637124814e+01 1.000000000000e+00 
2.753837155769e+01 1.000000000000e+00 
2.754037186725e+01 1.000000000000e+00 
2.754237217680e+01 1.000000000000e+00 
2.754437248635e+01 1.000000000000e+00 
2.835758083209e+01 1.000000000000e+00 
2.835891437179e+01 1.000000000000e+00 
2.836024791150e+01 1.000000000000e+00 
2.836158145120e+01 1.000000000000e+00 
2.836291499090e+01 1.000000000000e+00 
2.917879041605e+01 1.000000000000e+00 
2.917945718590e+01 1.000000000000e+00 
2.918012395575e+01 1.000000000000e+00 
2.918079072560e+01 1.000000000000e+00 
2.918145749545e+01 1.000000000000e+00 
3.000000000000e+01 1.000000000000e+00 
3.000000000000e+01 1.000000000000e+00 
3.000000000000e+01 1.000000000000e+00 
3.000000000000e+01 1.000000000000e+00 
3.000000000000e+01 1.000000000000e+00 
3.002500000000e+01 1.000000000000e+00 
3.002500000000e+01 1.000000000000e+00 
3.002500000000e+01 1.000000000000e+00 
3.002500000000e+01 1.000000000000e+00 
3.002500000000e+01 1.000000000000e+00 
3.005000000000e+01 1.000000000000e+00 
3.005000000000e+01 1.000000000000e+00 
3.005000000000e+01 1.000000000000e+00 
3.005000000000e+01 1.000000000000e+00 
3.005000000000e+01 1.000000000000e+00 
3.007500000000e+01 1.000000000000e+00 
3.007500000000e+01 1.000000000000e+00 
3.007500000000e+01 1.000000000000e+00 
3.007500000000e+01 1.000000000000e+00 
3.007500000000e+01 1.000000000000e+00 
3.010000000000e+01 1.000000000000e+00 
3.010000000000e+01 1.000000000000e+00 
3.010000000000e+01 1.000000000000e+00 
3.010000000000e+01 1.000000000000e+00 
3.010000000000e+01 1.000000000000e+00 
3.012500000000e+01 1.000000000000e+00 
3.012500000000e+01 1.000000000000e+00 
3.012500000000e+01 1.000000000000e+00 
3.012500000000e+01 1.000000000000e+00 
3.012500000000e+01 1.000000000000e+00 
3.015000000000e+01 1.000000000000e+00 
3.015000000000e+01 1.000000000000e+00 
3.015000000000e+01 1.000000000000e+00 