 TITLE = "Profiles along polylines"
 VARIABLES = "DIST" "SATURATION1" 
 ZONE T="TIME=0.000000000000e+00"
3.963495794029e+00 1.000000000000e+00 
3.983498889564e+00 1.000000000000e+00 
4.003501985098e+00 1.000000000000e+00 
4.023505080632e+00 1.000000000000e+00 
4.043508176167e+00 1.000000000000e+00 
4.831379267562e+00 1.000000000000e+00 
4.850715593245e+00 1.000000000000e+00 
4.870051918928e+00 1.000000000000e+00 
4.889388244611e+00 1.000000000000e+00 
4.908724570294e+00 1.000000000000e+00 
5.699262741094e+00 1.000000000000e+00 
5.717932296926e+00 1.000000000000e+00 
5.736601852758e+00 1.000000000000e+00 
5.755271408590e+00 1.000000000000e+00 
5.773940964422e+00 1.000000000000e+00 
6.567146214626e+00 1.000000000000e+00 
6.585149000607e+00 1.000000000000e+00 
6.603151786588e+00 1.000000000000e+00 
6.621154572569e+00 1.000000000000e+00 
6.639157358550e+00 1.000000000000e+00 
7.435029688159e+00 1.000000000000e+00 
7.452365704288e+00 1.000000000000e+00 
7.469701720418e+00 1.000000000000e+00 
7.487037736548e+00 1.000000000000e+00 
7.504373752678e+00 1.000000000000e+00 
8.302913161690e+00 1.000000000000e+00 
8.319582407969e+00 1.000000000000e+00 
8.336251654248e+00 1.000000000000e+00 
8.352920900526e+00 1.000000000000e+00 
8.369590146805e+00 1.000000000000e+00 
9.170796635222e+00 1.000000000000e+00 
9.186799111650e+00 1.000000000000e+00 
9.202801588077e+00 1.000000000000e+00 
9.218804064505e+00 1.000000000000e+00 
9.234806540932e+00 1.000000000000e+00 
1.003868010875e+01 1.000000000000e+00 
1.005401581533e+01 1.000000000000e+00 
1.006935152191e+01 1.000000000000e+00 
1.008468722848e+01 1.000000000000e+00 
1.010002293506e+01 1.000000000000e+00 
1.090656358229e+01 1.000000000000e+00 
1.092123251901e+01 1.000000000000e+00 
1.093590145574e+01 1.000000000000e+00 
1.095057039246e+01 1.000000000000e+00 
1.096523932919e+01 1.000000000000e+00 
1.177444705582e+01 1.000000000000e+00 
1.178844922269e+01 1.000000000000e+00 
1.180245138956e+01 1.000000000000e+00 
1.181645355644e+01 1.000000000000e+00 
1.183045572331e+01 1.000000000000e+00 
1.264233052935e+01 1.000000000000e+00 
1.265566592637e+01 1.000000000000e+00 
1.266900132339e+01 1.000000000000e+00 
1.268233672041e+01 1.000000000000e+00 
1.269567211744e+01 1.000000000000e+00 
1.351021400287e+01 1.000000000000e+00 
1.352288263005e+01 1.000000000000e+00 
1.353555125722e+01 1.000000000000e+00 
1.354821988439e+01 1.000000000000e+00 
1.356088851156e+01 1.000000000000e+00 
1.437809747640e+01 1.000000000000e+00 
1.439009933373e+01 1.000000000000e+00 
1.440210119105e+01 1.000000000000e+00 
1.441410304837e+01 1.000000000000e+00 
1.442610490569e+01 1.000000000000e+00 
1.524598094993e+01 1.000000000000e+00 
1.525731603740e+01 1.000000000000e+00 
1.526865112487e+01 1.000000000000e+00 
1.527998621234e+01 1.000000000000e+00 
1.529132129981e+01 1.000000000000e+00 
1.611386442346e+01 1.000000000000e+00 
1.612453274108e+01 1.000000000000e+00 
1.613520105870e+01 1.000000000000e+00 
1.614586937632e+01 1.000000000000e+00 
1.615653769394e+01 1.000000000000e+00 
1.698174789699e+01 1.000000000000e+00 
1.699174944476e+01 1.000000000000e+00 
1.700175099253e+01 1.000000000000e+00 
1.701175254030e+01 1.000000000000e+00 
1.702175408806e+01 1.000000000000e+00 
1.784963137053e+01 1.000000000000e+00 
1.785896614844e+01 1.000000000000e+00 
1.786830092636e+01 1.000000000000e+00 
1.787763570428e+01 1.000000000000e+00 
1.788697048219e+01 1.000000000000e+00 
1.871751484406e+01 1.000000000000e+00 
1.872618285213e+01 1.000000000000e+00 
1.873485086019e+01 1.000000000000e+00 
1.874351886826e+01 1.000000000000e+00 
1.875218687632e+01 1.000000000000e+00 
1.958539831759e+01 1.000000000000e+00 
1.959339955581e+01 1.000000000000e+00 
1.960140079402e+01 1.000000000000e+00 
1.960940203224e+01 1.000000000000e+00 
1.961740327045e+01 1.000000000000e+00 
2.045328179113e+01 1.000000000000e+00 
2.046061625949e+01 1.000000000000e+00 
2.046795072785e+01 1.000000000000e+00 
2.047528519622e+01 1.000000000000e+00 
2.048261966458e+01 1.000000000000e+00 
2.132116526466e+01 1.000000000000e+00 
2.132783296317e+01 1.000000000000e+00 
2.133450066169e+01 1.000000000000e+00 
2.134116836020e+01 1.000000000000e+00 
2.134783605871e+01 1.000000000000e+00 
2.218904873820e+01 1.000000000000e+00 
2.219504966686e+01 1.000000000000e+00 
2.220105059552e+01 1.000000000000e+00 
2.220705152418e+01 1.000000000000e+00 
2.221305245284e+01 1.000000000000e+00 
2.305693221173e+01 1.000000000000e+00 
2.306226637054e+01 1.000000000000e+00 
2.306760052935e+01 1.000000000000e+00 
2.307293468816e+01 1.000000000000e+00 
2.307826884697e+01 1.000000000000e+00 
2.392481568526e+01 1.000000000000e+00 
2.392948307422e+01 1.000000000000e+00 
2.393415046318e+01 1.000000000000e+00 
2.393881785214e+01 1.000000000000e+00 
2.394348524110e+01 1.000000000000e+00 
2.479269915880e+01 1.000000000000e+00 
2.479669977790e+01 1.000000000000e+00 
2.480070039701e+01 1.000000000000e+00 
2.480470101612e+01 1.000000000000e+00 
2.480870163522e+01 1.000000000000e+00 
2.566058263233e+01 1.000000000000e+00 
2.566391648159e+01 1.000000000000e+00 
2.566725033084e+01 1.000000000000e+00 
2.567058418010e+01 1.000000000000e+00 
2.567391802935e+01 1.000000000000e+00 
2.652846610587e+01 1.000000000000e+00 
2.653113318527e+01 1.000000000000e+00 
2.653380026467e+01 1.000000000000e+00 
2.653646734408e+01 1.000000000000e+00 
2.653913442348e+01 1.000000000000e+00 
2.739634957940e+01 1.000000000000e+00 
2.739834988895e+01 1.000000000000e+00 
2.740035019851e+01 1.000000000000e+00 
2.740235050806e+01 1.000000000000e+00 
2.740435081761e+01 1.000000000000e+00 
2.826423305293e+01 1.000000000000e+00 
2.826556659263e+01 1.000000000000e+00 
2.826690013234e+01 1.000000000000e+00 
2.826823367204e+01 1.000000000000e+00 
2.826956721174e+01 1.000000000000e+00 
2.913211652647e+01 1.000000000000e+00 
2.913278329632e+01 1.000000000000e+00 
2.913345006617e+01 1.000000000000e+00 
2.913411683602e+01 1.000000000000e+00 
2.913478360587e+01 1.000000000000e+00 
3.000000000000e+01 1.000000000000e+00 
3.000000000000e+01 1.000000000000e+00 
3.000000000000e+01 1.000000000000e+00 
3.000000000000e+01 1.000000000000e+00 
3.000000000000e+01 1.000000000000e+00 
3.002500000000e+01 9.876207709446e-01 
3.002500000000e+01 9.876207709446e-01 
3.002500000000e+01 9.876207709446e-01 
3.002500000000e+01 9.876207709446e-01 
3.002500000000e+01 9.876207709446e-01 
3.005000000000e+01 9.697756439369e-01 
3.005000000000e+01 9.697756439369e-01 
3.005000000000e+01 9.697756439369e-01 
3.005000000000e+01 9.697756439369e-01 
3.005000000000e+01 9.697756439369e-01 
3.007500000000e+01 9.507134089444e-01 
3.007500000000e+01 9.507134089444e-01 
3.007500000000e+01 9.507134089444e-01 
3.007500000000e+01 9.507134089444e-01 
3.007500000000e+01 9.507134089444e-01 
3.010000000000e+01 9.315621650298e-01 
3.010000000000e+01 9.315621650298e-01 
3.010000000000e+01 9.315621650298e-01 
3.010000000000e+01 9.315621650298e-01 
3.010000000000e+01 9.315621650298e-01 
3.012500000000e+01 9.128758324042e-01 
3.012500000000e+01 9.128758324042e-01 
3.012500000000e+01 9.128758324042e-01 
3.012500000000e+01 9.128758324042e-01 
3.012500000000e+01 9.128758324042e-01 
3.015000000000e+01 8.949248043380e-01 
3.015000000000e+01 8.949248043380e-01 
3.015000000000e+01 8.949248043380e-01 
3.015000000000e+01 8.949248043380e-01 
3.015000000000e+01 8.949248043380e-01 
3.017500000000e+01 8.778290027968e-01 
3.017500000000e+01 8.778290027968e-01 
3.017500000000e+01 8.778290027968e-01 
3.017500000000e+01 8.778290027968e-01 
3.017500000000e+01 8.778290027968e-01 
3.020000000000e+01 8.616255702900e-01 
3.020000000000e+01 8.616255702900e-01 
3.020000000000e+01 8.616255702900e-01 
3.020000000000e+01 8.616255702900e-01 
3.020000000000e+01 8.616255702900e-01 
3.022500000000e+01 8.463059583920e-01 
3.022500000000e+01 8.463059583920e-01 
3.022500000000e+01 8.463059583920e-01 
3.022500000000e+01 8.463059583920e-01 
3.022500000000e+01 8.463059583920e-01 
3.025000000000e+01 8.318370344398e-01 
3.025000000000e+01 8.318370344398e-01 
3.025000000000e+01 8.318370344398e-01 
3.025000000000e+01 8.318370344398e-01 
3.025000000000e+01 8.318370344398e-01 
3.027500000000e+01 8.181733156316e-01 
3.027500000000e+01 8.181733156316e-01 
3.027500000000e+01 8.181733156316e-01 
3.027500000000e+01 8.181733156316e-01 
3.027500000000e+01 8.181733156316e-01 
3.030000000000e+01 8.052640970350e-01 
3.030000000000e+01 8.052640970350e-01 
3.030000000000e+01 8.052640970350e-01 
3.030000000000e+01 8.052640970350e-01 
3.030000000000e+01 8.052640970350e-01 
3.032500000000e+01 7.930575753856e-01 
3.032500000000e+01 7.930575753856e-01 
3.032500000000e+01 7.930575753856e-01 
3.032500000000e+01 7.930575753856e-01 
3.032500000000e+01 7.930575753856e-01 
3.035000000000e+01 7.815031815402e-01 
3.035000000000e+01 7.815031815402e-01 
3.035000000000e+01 7.815031815402e-01 
3.035000000000e+01 7.815031815402e-01 
3.035000000000e+01 7.815031815402e-01 
3.037500000000e+01 7.705528376764e-01 
3.037500000000e+01 7.705528376764e-01 
3.037500000000e+01 7.705528376764e-01 
3.037500000000e+01 7.705528376764e-01 
3.037500000000e+01 7.705528376764e-01 
3.040000000000e+01 7.601615689674e-01 
3.040000000000e+01 7.601615689674e-01 
3.040000000000e+01 7.601615689674e-01 
3.040000000000e+01 7.601615689674e-01 
3.040000000000e+01 7.601615689674e-01 
3.042500000000e+01 7.502877306002e-01 
3.042500000000e+01 7.502877306002e-01 
3.042500000000e+01 7.502877306002e-01 
3.042500000000e+01 7.502877306002e-01 
3.042500000000e+01 7.502877306002e-01 
3.045000000000e+01 7.408930096824e-01 
3.045000000000e+01 7.408930096824e-01 
3.045000000000e+01 7.408930096824e-01 
3.045000000000e+01 7.408930096824e-01 
3.045000000000e+01 7.408930096824e-01 
3.047500000000e+01 7.319422999608e-01 
3.047500000000e+01 7.319422999608e-01 
3.047500000000e+01 7.319422999608e-01 
3.047500000000e+01 7.319422999608e-01 
3.047500000000e+01 7.319422999608e-01 
3.050000000000e+01 7.234035093991e-01 
3.050000000000e+01 7.234035093991e-01 
3.050000000000e+01 7.234035093991e-01 
3.050000000000e+01 7.234035093991e-01 
3.050000000000e+01 7.234035093991e-01 
3.052500000000e+01 7.152473371957e-01 
3.052500000000e+01 7.152473371957e-01 
3.052500000000e+01 7.152473371957e-01 
3.052500000000e+01 7.152473371957e-01 
3.052500000000e+01 7.152473371957e-01 
3.055000000000e+01 7.074470422112e-01 
3.055000000000e+01 7.074470422112e-01 
3.055000000000e+01 7.074470422112e-01 
3.055000000000e+01 7.074470422112e-01 
3.055000000000e+01 7.074470422112e-01 
3.057500000000e+01 6.999782156504e-01 
3.057500000000e+01 6.999782156504e-01 
3.057500000000e+01 6.999782156504e-01 
3.057500000000e+01 6.999782156504e-01 
3.057500000000e+01 6.999782156504e-01 
3.060000000000e+01 6.928185651596e-01 
3.060000000000e+01 6.928185651596e-01 
3.060000000000e+01 6.928185651596e-01 
3.060000000000e+01 6.928185651596e-01 
3.060000000000e+01 6.928185651596e-01 
3.062500000000e+01 6.859477139679e-01 
3.062500000000e+01 6.859477139679e-01 
3.062500000000e+01 6.859477139679e-01 
3.062500000000e+01 6.859477139679e-01 
3.062500000000e+01 6.859477139679e-01 
3.065000000000e+01 6.793470165436e-01 
3.065000000000e+01 6.793470165436e-01 
3.065000000000e+01 6.793470165436e-01 
3.065000000000e+01 6.793470165436e-01 
3.065000000000e+01 6.793470165436e-01 
3.067500000000e+01 6.729993909360e-01 
3.067500000000e+01 6.729993909360e-01 
3.067500000000e+01 6.729993909360e-01 
3.067500000000e+01 6.729993909360e-01 
3.067500000000e+01 6.729993909360e-01 
3.070000000000e+01 6.668891672206e-01 
3.070000000000e+01 6.668891672206e-01 
3.070000000000e+01 6.668891672206e-01 
3.070000000000e+01 6.668891672206e-01 
3.070000000000e+01 6.668891672206e-01 
3.072500000000e+01 6.610019510587e-01 
3.072500000000e+01 6.610019510587e-01 
3.072500000000e+01 6.610019510587e-01 
3.072500000000e+01 6.610019510587e-01 
3.072500000000e+01 6.610019510587e-01 
3.075000000000e+01 6.553245011865e-01 
3.075000000000e+01 6.553245011865e-01 
3.075000000000e+01 6.553245011865e-01 
3.075000000000e+01 6.553245011865e-01 
3.075000000000e+01 6.553245011865e-01 
3.077500000000e+01 6.498446195878e-01 
3.077500000000e+01 6.498446195878e-01 
3.077500000000e+01 6.498446195878e-01 
3.077500000000e+01 6.498446195878e-01 
3.077500000000e+01 6.498446195878e-01 
3.080000000000e+01 6.445510531188e-01 
3.080000000000e+01 6.445510531188e-01 
3.080000000000e+01 6.445510531188e-01 
3.080000000000e+01 6.445510531188e-01 
3.080000000000e+01 6.445510531188e-01 
3.082500000000e+01 6.394334054150e-01 
3.082500000000e+01 6.394334054150e-01 
3.082500000000e+01 6.394334054150e-01 
3.082500000000e+01 6.394334054150e-01 
3.082500000000e+01 6.394334054150e-01 
3.085000000000e+01 6.344820579917e-01 
3.085000000000e+01 6.344820579917e-01 
3.085000000000e+01 6.344820579917e-01 
3.085000000000e+01 6.344820579917e-01 
3.085000000000e+01 6.344820579917e-01 
3.087500000000e+01 6.296880995462e-01 
3.087500000000e+01 6.296880995462e-01 
3.087500000000e+01 6.296880995462e-01 
3.087500000000e+01 6.296880995462e-01 
3.087500000000e+01 6.296880995462e-01 
3.090000000000e+01 6.250432625624e-01 
3.090000000000e+01 6.250432625624e-01 
3.090000000000e+01 6.250432625624e-01 
3.090000000000e+01 6.250432625624e-01 
3.090000000000e+01 6.250432625624e-01 
3.092500000000e+01 6.205398664126e-01 
3.092500000000e+01 6.205398664126e-01 
3.092500000000e+01 6.205398664126e-01 
3.092500000000e+01 6.205398664126e-01 
3.092500000000e+01 6.205398664126e-01 
3.095000000000e+01 6.161707662369e-01 
3.095000000000e+01 6.161707662369e-01 
3.095000000000e+01 6.161707662369e-01 
3.095000000000e+01 6.161707662369e-01 
3.095000000000e+01 6.161707662369e-01 
3.097500000000e+01 6.119293069613e-01 
3.097500000000e+01 6.119293069613e-01 
3.097500000000e+01 6.119293069613e-01 
3.097500000000e+01 6.119293069613e-01 
3.097500000000e+01 6.119293069613e-01 
3.100000000000e+01 6.078092818871e-01 
3.100000000000e+01 6.078092818871e-01 
3.100000000000e+01 6.078092818871e-01 
3.100000000000e+01 6.078092818871e-01 
3.100000000000e+01 6.078092818871e-01 
3.102500000000e+01 6.038048953494e-01 
3.102500000000e+01 6.038048953494e-01 
3.102500000000e+01 6.038048953494e-01 
3.102500000000e+01 6.038048953494e-01 
3.102500000000e+01 6.038048953494e-01 
3.105000000000e+01 5.999107290013e-01 
3.105000000000e+01 5.999107290013e-01 
3.105000000000e+01 5.999107290013e-01 
3.105000000000e+01 5.999107290013e-01 
3.105000000000e+01 5.999107290013e-01 
3.107500000000e+01 5.961217113309e-01 
3.107500000000e+01 5.961217113309e-01 
3.107500000000e+01 5.961217113309e-01 
3.107500000000e+01 5.961217113309e-01 
3.107500000000e+01 5.961217113309e-01 
3.110000000000e+01 5.924330900627e-01 
3.110000000000e+01 5.924330900627e-01 
3.110000000000e+01 5.924330900627e-01 
3.110000000000e+01 5.924330900627e-01 
3.110000000000e+01 5.924330900627e-01 
3.112500000000e+01 5.888404071392e-01 
3.112500000000e+01 5.888404071392e-01 
3.112500000000e+01 5.888404071392e-01 
3.112500000000e+01 5.888404071392e-01 
3.112500000000e+01 5.888404071392e-01 
3.115000000000e+01 5.853394760078e-01 
3.115000000000e+01 5.853394760078e-01 
3.115000000000e+01 5.853394760078e-01 
3.115000000000e+01 5.853394760078e-01 
3.115000000000e+01 5.853394760078e-01 
3.117500000000e+01 5.819263609758e-01 
3.117500000000e+01 5.819263609758e-01 
3.117500000000e+01 5.819263609758e-01 
3.117500000000e+01 5.819263609758e-01 
3.117500000000e+01 5.819263609758e-01 
3.120000000000e+01 5.785973584173e-01 
3.120000000000e+01 5.785973584173e-01 
3.120000000000e+01 5.785973584173e-01 
3.120000000000e+01 5.785973584173e-01 
3.120000000000e+01 5.785973584173e-01 
3.122500000000e+01 5.753489796460e-01 
3.122500000000e+01 5.753489796460e-01 
3.122500000000e+01 5.753489796460e-01 
3.122500000000e+01 5.753489796460e-01 
3.122500000000e+01 5.753489796460e-01 
3.125000000000e+01 5.721779352840e-01 
3.125000000000e+01 5.721779352840e-01 
3.125000000000e+01 5.721779352840e-01 
3.125000000000e+01 5.721779352840e-01 
3.125000000000e+01 5.721779352840e-01 
3.127500000000e+01 5.690811209785e-01 
3.127500000000e+01 5.690811209785e-01 
3.127500000000e+01 5.690811209785e-01 
3.127500000000e+01 5.690811209785e-01 
3.127500000000e+01 5.690811209785e-01 
3.130000000000e+01 5.660556043336e-01 
3.130000000000e+01 5.660556043336e-01 
3.130000000000e+01 5.660556043336e-01 
3.130000000000e+01 5.660556043336e-01 
3.130000000000e+01 5.660556043336e-01 
3.132500000000e+01 5.630986129391e-01 
3.132500000000e+01 5.630986129391e-01 
3.132500000000e+01 5.630986129391e-01 
3.132500000000e+01 5.630986129391e-01 
3.132500000000e+01 5.630986129391e-01 
3.135000000000e+01 5.602075233904e-01 
3.135000000000e+01 5.602075233904e-01 
3.135000000000e+01 5.602075233904e-01 
3.135000000000e+01 5.602075233904e-01 
3.135000000000e+01 5.602075233904e-01 
3.137500000000e+01 5.573798512060e-01 
3.137500000000e+01 5.573798512060e-01 
3.137500000000e+01 5.573798512060e-01 
3.137500000000e+01 5.573798512060e-01 
3.137500000000e+01 5.573798512060e-01 
3.140000000000e+01 5.546132415581e-01 
3.140000000000e+01 5.546132415581e-01 
3.140000000000e+01 5.546132415581e-01 
3.140000000000e+01 5.546132415581e-01 
3.140000000000e+01 5.546132415581e-01 
3.142500000000e+01 5.519054607414e-01 
3.142500000000e+01 5.519054607414e-01 
3.142500000000e+01 5.519054607414e-01 
3.142500000000e+01 5.519054607414e-01 
3.142500000000e+01 5.519054607414e-01 
3.145000000000e+01 5.492543883110e-01 
3.145000000000e+01 5.492543883110e-01 
3.145000000000e+01 5.492543883110e-01 
3.145000000000e+01 5.492543883110e-01 
3.145000000000e+01 5.492543883110e-01 
3.147500000000e+01 5.466580098318e-01 
3.147500000000e+01 5.466580098318e-01 
3.147500000000e+01 5.466580098318e-01 
3.147500000000e+01 5.466580098318e-01 
3.147500000000e+01 5.466580098318e-01 
3.150000000000e+01 5.441144101810e-01 
3.150000000000e+01 5.441144101810e-01 
3.150000000000e+01 5.441144101810e-01 
3.150000000000e+01 5.441144101810e-01 
3.150000000000e+01 5.441144101810e-01 
3.152500000000e+01 5.416217673588e-01 
3.152500000000e+01 5.416217673588e-01 
3.152500000000e+01 5.416217673588e-01 
3.152500000000e+01 5.416217673588e-01 
3.152500000000e+01 5.416217673588e-01 
3.155000000000e+01 5.391783467591e-01 
3.155000000000e+01 5.391783467591e-01 
3.155000000000e+01 5.391783467591e-01 
3.155000000000e+01 5.391783467591e-01 
3.155000000000e+01 5.391783467591e-01 
3.157500000000e+01 5.367824958643e-01 
3.157500000000e+01 5.367824958643e-01 
3.157500000000e+01 5.367824958643e-01 
3.157500000000e+01 5.367824958643e-01 
3.157500000000e+01 5.367824958643e-01 
3.160000000000e+01 5.344326393247e-01 
3.160000000000e+01 5.344326393247e-01 
3.160000000000e+01 5.344326393247e-01 
3.160000000000e+01 5.344326393247e-01 
3.160000000000e+01 5.344326393247e-01 
3.162500000000e+01 5.321272743928e-01 
3.162500000000e+01 5.321272743928e-01 
3.162500000000e+01 5.321272743928e-01 
3.162500000000e+01 5.321272743928e-01 
3.162500000000e+01 5.321272743928e-01 
3.165000000000e+01 5.298649666811e-01 
3.165000000000e+01 5.298649666811e-01 
3.165000000000e+01 5.298649666811e-01 
3.165000000000e+01 5.298649666811e-01 
3.165000000000e+01 5.298649666811e-01 
3.167500000000e+01 5.276443462180e-01 
3.167500000000e+01 5.276443462180e-01 
3.167500000000e+01 5.276443462180e-01 
3.167500000000e+01 5.276443462180e-01 
3.167500000000e+01 5.276443462180e-01 
3.170000000000e+01 5.254641037767e-01 
3.170000000000e+01 5.254641037767e-01 
3.170000000000e+01 5.254641037767e-01 
3.170000000000e+01 5.254641037767e-01 
3.170000000000e+01 5.254641037767e-01 
3.172500000000e+01 5.233229874560e-01 
3.172500000000e+01 5.233229874560e-01 
3.172500000000e+01 5.233229874560e-01 
3.172500000000e+01 5.233229874560e-01 
3.172500000000e+01 5.233229874560e-01 
3.175000000000e+01 5.212197994921e-01 
3.175000000000e+01 5.212197994921e-01 
3.175000000000e+01 5.212197994921e-01 
3.175000000000e+01 5.212197994921e-01 
3.175000000000e+01 5.212197994921e-01 
3.177500000000e+01 5.191533932842e-01 
3.177500000000e+01 5.191533932842e-01 
3.177500000000e+01 5.191533932842e-01 
3.177500000000e+01 5.191533932842e-01 
3.177500000000e+01 5.191533932842e-01 
3.180000000000e+01 5.171226706164e-01 
3.180000000000e+01 5.171226706164e-01 
3.180000000000e+01 5.171226706164e-01 
3.180000000000e+01 5.171226706164e-01 
3.180000000000e+01 5.171226706164e-01 
3.182500000000e+01 5.151265790614e-01 
3.182500000000e+01 5.151265790614e-01 
3.182500000000e+01 5.151265790614e-01 
3.182500000000e+01 5.151265790614e-01 
3.182500000000e+01 5.151265790614e-01 
3.185000000000e+01 5.131641095520e-01 
3.185000000000e+01 5.131641095520e-01 
3.185000000000e+01 5.131641095520e-01 
3.185000000000e+01 5.131641095520e-01 
3.185000000000e+01 5.131641095520e-01 
3.187500000000e+01 5.112342941078e-01 
3.187500000000e+01 5.112342941078e-01 
3.187500000000e+01 5.112342941078e-01 
3.187500000000e+01 5.112342941078e-01 
3.187500000000e+01 5.112342941078e-01 
3.190000000000e+01 5.093362037054e-01 
3.190000000000e+01 5.093362037054e-01 
3.190000000000e+01 5.093362037054e-01 
3.190000000000e+01 5.093362037054e-01 
3.190000000000e+01 5.093362037054e-01 
3.192500000000e+01 5.074689462822e-01 
3.192500000000e+01 5.074689462822e-01 
3.192500000000e+01 5.074689462822e-01 
3.192500000000e+01 5.074689462822e-01 
3.192500000000e+01 5.074689462822e-01 
3.195000000000e+01 5.056316648631e-01 
3.195000000000e+01 5.056316648631e-01 
3.195000000000e+01 5.056316648631e-01 
3.195000000000e+01 5.056316648631e-01 
3.195000000000e+01 5.056316648631e-01 
3.197500000000e+01 5.038235358020e-01 
3.197500000000e+01 5.038235358020e-01 
3.197500000000e+01 5.038235358020e-01 
3.197500000000e+01 5.038235358020e-01 
3.197500000000e+01 5.038235358020e-01 
3.200000000000e+01 5.006049726296e-01 
3.200000000000e+01 5.006184235684e-01 
3.200000000000e+01 5.006251347135e-01 
3.200000000000e+01 5.006117028630e-01 
3.200000000000e+01 5.006318362662e-01 
3.339269915881e+01 4.309325806807e-01 
3.339669977791e+01 4.307834374399e-01 
3.340070039702e+01 4.306345156684e-01 
3.340470101613e+01 4.304858148054e-01 
3.340870163523e+01 4.303373342923e-01 
3.478539831761e+01 3.917693543468e-01 
3.479339955583e+01 3.915837693589e-01 
3.480140079404e+01 3.913985898355e-01 
3.480940203225e+01 3.912138142415e-01 
3.481740327047e+01 3.910294410496e-01 
3.617809747642e+01 3.649615333278e-01 
3.619009933374e+01 3.647633300073e-01 
3.620210119106e+01 3.645656321003e-01 
3.621410304838e+01 3.643684373636e-01 
3.622610490570e+01 3.641717435679e-01 
3.757079663522e+01 3.450271353765e-01 
3.758679911165e+01 3.448252231751e-01 
3.760280158808e+01 3.446238724782e-01 
3.761880406451e+01 3.444230805646e-01 
3.763480654093e+01 3.442228447317e-01 
3.896349579403e+01 3.293710857557e-01 
3.898349888956e+01 3.291692312708e-01 
3.900350198510e+01 3.289679704273e-01 
3.902350508063e+01 3.287673001813e-01 
3.904350817617e+01 3.285672175113e-01 
 TITLE = "Profiles along polylines"
 VARIABLES = "DIST" "SATURATION1" 
 ZONE T="TIME=1.797693134862e+308"
3.963495794029e+00 1.000000000000e+00 
3.983498889564e+00 1.000000000000e+00 
4.003501985098e+00 1.000000000000e+00 
4.023505080632e+00 1.000000000000e+00 
4.043508176167e+00 1.000000000000e+00 
4.831379267562e+00 1.000000000000e+00 
4.850715593245e+00 1.000000000000e+00 
4.870051918928e+00 1.000000000000e+00 
4.889388244611e+00 1.000000000000e+00 
4.908724570294e+00 1.000000000000e+00 
5.699262741094e+00 1.000000000000e+00 
5.717932296926e+00 1.000000000000e+00 
5.736601852758e+00 1.000000000000e+00 
5.755271408590e+00 1.000000000000e+00 
5.773940964422e+00 1.000000000000e+00 
6.567146214626e+00 1.000000000000e+00 
6.585149000607e+00 1.000000000000e+00 
6.603151786588e+00 1.000000000000e+00 
6.621154572569e+00 1.000000000000e+00 
6.639157358550e+00 1.000000000000e+00 
7.435029688159e+00 1.000000000000e+00 
7.452365704288e+00 1.000000000000e+00 
7.469701720418e+00 1.000000000000e+00 
7.487037736548e+00 1.000000000000e+00 
7.504373752678e+00 1.000000000000e+00 
8.302913161690e+00 1.000000000000e+00 
8.319582407969e+00 1.000000000000e+00 
8.336251654248e+00 1.000000000000e+00 
8.352920900526e+00 1.000000000000e+00 
8.369590146805e+00 1.000000000000e+00 
9.170796635222e+00 1.000000000000e+00 
9.186799111650e+00 1.000000000000e+00 
9.202801588077e+00 1.000000000000e+00 
9.218804064505e+00 1.000000000000e+00 
9.234806540932e+00 1.000000000000e+00 
1.003868010875e+01 1.000000000000e+00 
1.005401581533e+01 1.000000000000e+00 
1.006935152191e+01 1.000000000000e+00 
1.008468722848e+01 1.000000000000e+00 
1.010002293506e+01 1.000000000000e+00 
1.090656358229e+01 1.000000000000e+00 
1.092123251901e+01 1.000000000000e+00 
1.093590145574e+01 1.000000000000e+00 
1.095057039246e+01 1.000000000000e+00 
1.096523932919e+01 1.000000000000e+00 
1.177444705582e+01 1.000000000000e+00 
1.178844922269e+01 1.000000000000e+00 
1.180245138956e+01 1.000000000000e+00 
1.181645355644e+01 1.000000000000e+00 
1.183045572331e+01 1.000000000000e+00 
1.264233052935e+01 1.000000000000e+00 
1.265566592637e+01 1.000000000000e+00 
1.266900132339e+01 1.000000000000e+00 
1.268233672041e+01 1.000000000000e+00 
1.269567211744e+01 1.000000000000e+00 
1.351021400287e+01 1.000000000000e+00 
1.352288263005e+01 1.000000000000e+00 
1.353555125722e+01 1.000000000000e+00 
1.354821988439e+01 1.000000000000e+00 
1.356088851156e+01 1.000000000000e+00 
1.437809747640e+01 1.000000000000e+00 
1.439009933373e+01 1.000000000000e+00 
1.440210119105e+01 1.000000000000e+00 
1.441410304837e+01 1.000000000000e+00 
1.442610490569e+01 1.000000000000e+00 
1.524598094993e+01 1.000000000000e+00 
1.525731603740e+01 1.000000000000e+00 
1.526865112487e+01 1.000000000000e+00 
1.527998621234e+01 1.000000000000e+00 
1.529132129981e+01 1.000000000000e+00 
1.611386442346e+01 1.000000000000e+00 
1.612453274108e+01 1.000000000000e+00 
1.613520105870e+01 1.000000000000e+00 
1.614586937632e+01 1.000000000000e+00 
1.615653769394e+01 1.000000000000e+00 
1.698174789699e+01 1.000000000000e+00 
1.699174944476e+01 1.000000000000e+00 
1.700175099253e+01 1.000000000000e+00 
1.701175254030e+01 1.000000000000e+00 
1.702175408806e+01 1.000000000000e+00 
1.784963137053e+01 1.000000000000e+00 
1.785896614844e+01 1.000000000000e+00 
1.786830092636e+01 1.000000000000e+00 
1.787763570428e+01 1.000000000000e+00 
1.788697048219e+01 1.000000000000e+00 
1.871751484406e+01 1.000000000000e+00 
1.872618285213e+01 1.000000000000e+00 
1.873485086019e+01 1.000000000000e+00 
1.874351886826e+01 1.000000000000e+00 
1.875218687632e+01 1.000000000000e+00 
1.958539831759e+01 1.000000000000e+00 
1.959339955581e+01 1.000000000000e+00 
1.960140079402e+01 1.000000000000e+00 
1.960940203224e+01 1.000000000000e+00 
1.961740327045e+01 1.000000000000e+00 
2.045328179113e+01 1.000000000000e+00 
2.046061625949e+01 1.000000000000e+00 
2.046795072785e+01 1.000000000000e+00 
2.047528519622e+01 1.000000000000e+00 
2.048261966458e+01 1.000000000000e+00 
2.132116526466e+01 1.000000000000e+00 
2.132783296317e+01 1.000000000000e+00 
2.133450066169e+01 1.000000000000e+00 
2.134116836020e+01 1.000000000000e+00 
2.134783605871e+01 1.000000000000e+00 
2.218904873820e+01 1.000000000000e+00 
2.219504966686e+01 1.000000000000e+00 
2.220105059552e+01 1.000000000000e+00 
2.220705152418e+01 1.000000000000e+00 
2.221305245284e+01 1.000000000000e+00 
2.305693221173e+01 1.000000000000e+00 
2.306226637054e+01 1.000000000000e+00 
2.306760052935e+01 1.000000000000e+00 
2.307293468816e+01 1.000000000000e+00 
2.307826884697e+01 1.000000000000e+00 
2.392481568526e+01 1.000000000000e+00 
2.392948307422e+01 1.000000000000e+00 
2.393415046318e+01 1.000000000000e+00 
2.393881785214e+01 1.000000000000e+00 
2.394348524110e+01 1.000000000000e+00 
2.479269915880e+01 1.000000000000e+00 
2.479669977790e+01 1.000000000000e+00 
2.480070039701e+01 1.000000000000e+00 
2.480470101612e+01 1.000000000000e+00 
2.480870163522e+01 1.000000000000e+00 
2.566058263233e+01 1.000000000000e+00 
2.566391648159e+01 1.000000000000e+00 
2.566725033084e+01 1.000000000000e+00 
2.567058418010e+01 1.000000000000e+00 
2.567391802935e+01 1.000000000000e+00 
2.652846610587e+01 1.000000000000e+00 
2.653113318527e+01 1.000000000000e+00 
2.653380026467e+01 1.000000000000e+00 
2.653646734408e+01 1.000000000000e+00 
2.653913442348e+01 1.000000000000e+00 
2.739634957940e+01 1.000000000000e+00 
2.739834988895e+01 1.000000000000e+00 
2.740035019851e+01 1.000000000000e+00 
2.740235050806e+01 1.000000000000e+00 
2.740435081761e+01 1.000000000000e+00 
2.826423305293e+01 1.000000000000e+00 
2.826556659263e+01 1.000000000000e+00 
2.826690013234e+01 1.000000000000e+00 
2.826823367204e+01 1.000000000000e+00 
2.826956721174e+01 1.000000000000e+00 
2.913211652647e+01 1.000000000000e+00 
2.913278329632e+01 1.000000000000e+00 
2.913345006617e+01 1.000000000000e+00 
2.913411683602e+01 1.000000000000e+00 
2.913478360587e+01 1.000000000000e+00 
3.000000000000e+01 1.000000000000e+00 
3.000000000000e+01 1.000000000000e+00 
3.000000000000e+01 1.000000000000e+00 
3.000000000000e+01 1.000000000000e+00 
3.000000000000e+01 1.000000000000e+00 
3.002500000000e+01 1.000000000000e+00 
3.002500000000e+01 1.000000000000e+00 
3.002500000000e+01 1.000000000000e+00 
3.002500000000e+01 1.000000000000e+00 
3.002500000000e+01 1.000000000000e+00 
3.005000000000e+01 1.000000000000e+00 
3.005000000000e+01 1.000000000000e+00 
3.005000000000e+01 1.000000000000e+00 
3.005000000000e+01 1.000000000000e+00 
3.005000000000e+01 1.000000000000e+00 
3.007500000000e+01 1.000000000000e+00 
3.007500000000e+01 1.000000000000e+00 
3.007500000000e+01 1.000000000000e+00 
3.007500000000e+01 1.000000000000e+00 
3.007500000000e+01 1.000000000000e+00 
3.010000000000e+01 1.000000000000e+00 
3.010000000000e+01 1.000000000000e+00 
3.010000000000e+01 1.000000000000e+00 
3.010000000000e+01 1.000000000000e+00 
3.010000000000e+01 1.000000000000e+00 
3.012500000000e+01 1.000000000000e+00 
3.012500000000e+01 1.000000000000e+00 
3.012500000000e+01 1.000000000000e+00 
3.012500000000e+01 1.000000000000e+00 
3.012500000000e+01 1.000000000000e+00 
3.015000000000e+01 1.000000000000e+00 
3.015000000000e+01 1.000000000000e+00 
3.015000000000e+01 1.000000000000e+00 