 TITLE = "Profiles along polylines"
 VARIABLES = "DIST" "SATURATION1" 
 ZONE T="TIME=0.000000000000e+00"
1.452148257112e+01 1.000000000000e+00 
1.456146478964e+01 1.000000000000e+00 
1.460144700815e+01 1.000000000000e+00 
1.464142922667e+01 1.000000000000e+00 
1.468141144519e+01 1.000000000000e+00 
1.503743315209e+01 1.000000000000e+00 
1.507608262998e+01 1.000000000000e+00 
1.511473210788e+01 1.000000000000e+00 
1.515338158578e+01 1.000000000000e+00 
1.519203106368e+01 1.000000000000e+00 
1.555338373305e+01 1.000000000000e+00 
1.559070047033e+01 1.000000000000e+00 
1.562801720761e+01 1.000000000000e+00 
1.566533394489e+01 1.000000000000e+00 
1.570265068217e+01 1.000000000000e+00 
1.606933431401e+01 1.000000000000e+00 
1.610531831067e+01 1.000000000000e+00 
1.614130230734e+01 1.000000000000e+00 
1.617728630400e+01 1.000000000000e+00 
1.621327030067e+01 1.000000000000e+00 
1.658528489497e+01 1.000000000000e+00 
1.661993615102e+01 1.000000000000e+00 
1.665458740707e+01 1.000000000000e+00 
1.668923866311e+01 1.000000000000e+00 
1.672388991916e+01 1.000000000000e+00 
1.710123547594e+01 1.000000000000e+00 
1.713455399137e+01 1.000000000000e+00 
1.716787250680e+01 1.000000000000e+00 
1.720119102223e+01 1.000000000000e+00 
1.723450953766e+01 1.000000000000e+00 
1.761718605690e+01 1.000000000000e+00 
1.764917183171e+01 1.000000000000e+00 
1.768115760652e+01 1.000000000000e+00 
1.771314338134e+01 1.000000000000e+00 
1.774512915615e+01 1.000000000000e+00 
1.813313663786e+01 1.000000000000e+00 
1.816378967206e+01 1.000000000000e+00 
1.819444270625e+01 1.000000000000e+00 
1.822509574045e+01 1.000000000000e+00 
1.825574877464e+01 1.000000000000e+00 
1.864908721882e+01 1.000000000000e+00 
1.867840751240e+01 1.000000000000e+00 
1.870772780598e+01 1.000000000000e+00 
1.873704809956e+01 1.000000000000e+00 
1.876636839314e+01 1.000000000000e+00 
1.916503779978e+01 1.000000000000e+00 
1.919302535275e+01 1.000000000000e+00 
1.922101290571e+01 1.000000000000e+00 
1.924900045867e+01 1.000000000000e+00 
1.927698801163e+01 1.000000000000e+00 
1.968098838075e+01 1.000000000000e+00 
1.970764319309e+01 1.000000000000e+00 
1.973429800543e+01 1.000000000000e+00 
1.976095281778e+01 1.000000000000e+00 
1.978760763012e+01 1.000000000000e+00 
2.019693896171e+01 1.000000000000e+00 
2.022226103343e+01 1.000000000000e+00 
2.024758310516e+01 1.000000000000e+00 
2.027290517689e+01 1.000000000000e+00 
2.029822724861e+01 1.000000000000e+00 
2.071288954267e+01 1.000000000000e+00 
2.073687887378e+01 1.000000000000e+00 
2.076086820489e+01 1.000000000000e+00 
2.078485753600e+01 1.000000000000e+00 
2.080884686711e+01 1.000000000000e+00 
2.122884012363e+01 1.000000000000e+00 
2.125149671412e+01 1.000000000000e+00 
2.127415330462e+01 1.000000000000e+00 
2.129680989511e+01 1.000000000000e+00 
2.131946648560e+01 1.000000000000e+00 
2.174479070459e+01 1.000000000000e+00 
2.176611455447e+01 1.000000000000e+00 
2.178743840434e+01 1.000000000000e+00 
2.180876225422e+01 1.000000000000e+00 
2.183008610409e+01 1.000000000000e+00 
2.226074128555e+01 1.000000000000e+00 
2.228073239481e+01 1.000000000000e+00 
2.230072350407e+01 1.000000000000e+00 
2.232071461333e+01 1.000000000000e+00 
2.234070572259e+01 1.000000000000e+00 
2.277669186652e+01 1.000000000000e+00 
2.279535023516e+01 1.000000000000e+00 
2.281400860380e+01 1.000000000000e+00 
2.283266697244e+01 1.000000000000e+00 
2.285132534108e+01 1.000000000000e+00 
2.329264244748e+01 1.000000000000e+00 
2.330996807550e+01 1.000000000000e+00 
2.332729370353e+01 1.000000000000e+00 
2.334461933155e+01 1.000000000000e+00 
2.336194495957e+01 1.000000000000e+00 
2.380859302844e+01 1.000000000000e+00 
2.382458591585e+01 1.000000000000e+00 
2.384057880326e+01 1.000000000000e+00 
2.385657169066e+01 1.000000000000e+00 
2.387256457807e+01 1.000000000000e+00 
2.432454360941e+01 1.000000000000e+00 
2.433920375620e+01 1.000000000000e+00 
2.435386390298e+01 1.000000000000e+00 
2.436852404977e+01 1.000000000000e+00 
2.438318419656e+01 1.000000000000e+00 
2.484049419037e+01 1.000000000000e+00 
2.485382159654e+01 1.000000000000e+00 
2.486714900271e+01 1.000000000000e+00 
2.488047640889e+01 1.000000000000e+00 
2.489380381506e+01 1.000000000000e+00 
2.535644477133e+01 1.000000000000e+00 
2.536843943689e+01 1.000000000000e+00 
2.538043410244e+01 1.000000000000e+00 
2.539242876800e+01 1.000000000000e+00 
2.540442343355e+01 1.000000000000e+00 
2.587239535230e+01 1.000000000000e+00 
2.588305727723e+01 1.000000000000e+00 
2.589371920217e+01 1.000000000000e+00 
2.590438112711e+01 1.000000000000e+00 
2.591504305205e+01 1.000000000000e+00 
2.638834593326e+01 1.000000000000e+00 
2.639767511758e+01 1.000000000000e+00 
2.640700430190e+01 1.000000000000e+00 
2.641633348622e+01 1.000000000000e+00 
2.642566267054e+01 1.000000000000e+00 
2.690429651422e+01 1.000000000000e+00 
2.691229295792e+01 1.000000000000e+00 
2.692028940163e+01 1.000000000000e+00 
2.692828584533e+01 1.000000000000e+00 
2.693628228903e+01 1.000000000000e+00 
2.742024709518e+01 1.000000000000e+00 
2.742691079827e+01 1.000000000000e+00 
2.743357450136e+01 1.000000000000e+00 
2.744023820444e+01 1.000000000000e+00 
2.744690190753e+01 1.000000000000e+00 
2.793619767615e+01 1.000000000000e+00 
2.794152863862e+01 1.000000000000e+00 
2.794685960109e+01 1.000000000000e+00 
2.795219056355e+01 1.000000000000e+00 
2.795752152602e+01 1.000000000000e+00 
2.845214825711e+01 1.000000000000e+00 
2.845614647896e+01 1.000000000000e+00 
2.846014470081e+01 1.000000000000e+00 
2.846414292267e+01 1.000000000000e+00 
2.846814114452e+01 1.000000000000e+00 
2.896809883807e+01 1.000000000000e+00 
2.897076431931e+01 1.000000000000e+00 
2.897342980054e+01 1.000000000000e+00 
2.897609528178e+01 1.000000000000e+00 
2.897876076301e+01 1.000000000000e+00 
2.948404941904e+01 1.000000000000e+00 
2.948538215965e+01 1.000000000000e+00 
2.948671490027e+01 1.000000000000e+00 
2.948804764089e+01 1.000000000000e+00 
2.948938038151e+01 1.000000000000e+00 
3.000000000000e+01 1.000000000000e+00 
3.000000000000e+01 1.000000000000e+00 
3.000000000000e+01 1.000000000000e+00 
3.000000000000e+01 1.000000000000e+00 
3.000000000000e+01 1.000000000000e+00 
3.002500000000e+01 9.876207709446e-01 
3.002500000000e+01 9.876207709446e-01 
3.002500000000e+01 9.876207709446e-01 
3.002500000000e+01 9.876207709446e-01 
3.002500000000e+01 9.876207709446e-01 
3.005000000000e+01 9.697756439369e-01 
3.005000000000e+01 9.697756439369e-01 
3.005000000000e+01 9.697756439369e-01 
3.005000000000e+01 9.697756439369e-01 
3.005000000000e+01 9.697756439369e-01 
3.007500000000e+01 9.507134089444e-01 
3.007500000000e+01 9.507134089444e-01 
3.007500000000e+01 9.507134089444e-01 
3.007500000000e+01 9.507134089444e-01 
3.007500000000e+01 9.507134089444e-01 
3.010000000000e+01 9.315621650298e-01 
3.010000000000e+01 9.315621650298e-01 
3.010000000000e+01 9.315621650298e-01 
3.010000000000e+01 9.315621650298e-01 
3.010000000000e+01 9.315621650298e-01 
3.012500000000e+01 9.128758324042e-01 
3.012500000000e+01 9.128758324042e-01 
3.012500000000e+01 9.128758324042e-01 
3.012500000000e+01 9.128758324042e-01 
3.012500000000e+01 9.128758324042e-01 
3.015000000000e+01 8.949248043380e-01 
3.015000000000e+01 8.949248043380e-01 
3.015000000000e+01 8.949248043380e-01 
3.015000000000e+01 8.949248043380e-01 
3.015000000000e+01 8.949248043380e-01 
3.017500000000e+01 8.778290027968e-01 
3.017500000000e+01 8.778290027968e-01 
3.017500000000e+01 8.778290027968e-01 
3.017500000000e+01 8.778290027968e-01 
3.017500000000e+01 8.778290027968e-01 
3.020000000000e+01 8.616255702900e-01 
3.020000000000e+01 8.616255702900e-01 
3.020000000000e+01 8.616255702900e-01 
3.020000000000e+01 8.616255702900e-01 
3.020000000000e+01 8.616255702900e-01 
3.022500000000e+01 8.463059583920e-01 
3.022500000000e+01 8.463059583920e-01 
3.022500000000e+01 8.463059583920e-01 
3.022500000000e+01 8.463059583920e-01 
3.022500000000e+01 8.463059583920e-01 
3.025000000000e+01 8.318370344398e-01 
3.025000000000e+01 8.318370344398e-01 
3.025000000000e+01 8.318370344398e-01 
3.025000000000e+01 8.318370344398e-01 
3.025000000000e+01 8.318370344398e-01 
3.027500000000e+01 8.181733156316e-01 
3.027500000000e+01 8.181733156316e-01 
3.027500000000e+01 8.181733156316e-01 
3.027500000000e+01 8.181733156316e-01 
3.027500000000e+01 8.181733156316e-01 
3.030000000000e+01 8.052640970350e-01 
3.030000000000e+01 8.052640970350e-01 
3.030000000000e+01 8.052640970350e-01 
3.030000000000e+01 8.052640970350e-01 
3.030000000000e+01 8.052640970350e-01 
3.032500000000e+01 7.930575753856e-01 
3.032500000000e+01 7.930575753856e-01 
3.032500000000e+01 7.930575753856e-01 
3.032500000000e+01 7.930575753856e-01 
3.032500000000e+01 7.930575753856e-01 
3.035000000000e+01 7.815031815402e-01 
3.035000000000e+01 7.815031815402e-01 
3.035000000000e+01 7.815031815402e-01 
3.035000000000e+01 7.815031815402e-01 
3.035000000000e+01 7.815031815402e-01 
3.037500000000e+01 7.705528376764e-01 
3.037500000000e+01 7.705528376764e-01 
3.037500000000e+01 7.705528376764e-01 
3.037500000000e+01 7.705528376764e-01 
3.037500000000e+01 7.705528376764e-01 
3.040000000000e+01 7.601615689674e-01 
3.040000000000e+01 7.601615689674e-01 
3.040000000000e+01 7.601615689674e-01 
3.040000000000e+01 7.601615689674e-01 
3.040000000000e+01 7.601615689674e-01 
3.042500000000e+01 7.502877306002e-01 
3.042500000000e+01 7.502877306002e-01 
3.042500000000e+01 7.502877306002e-01 
3.042500000000e+01 7.502877306002e-01 
3.042500000000e+01 7.502877306002e-01 
3.045000000000e+01 7.408930096824e-01 
3.045000000000e+01 7.408930096824e-01 
3.045000000000e+01 7.408930096824e-01 
3.045000000000e+01 7.408930096824e-01 
3.045000000000e+01 7.408930096824e-01 
3.047500000000e+01 7.319422999608e-01 
3.047500000000e+01 7.319422999608e-01 
3.047500000000e+01 7.319422999608e-01 
3.047500000000e+01 7.319422999608e-01 
3.047500000000e+01 7.319422999608e-01 
3.050000000000e+01 7.234035093991e-01 
3.050000000000e+01 7.234035093991e-01 
3.050000000000e+01 7.234035093991e-01 
3.050000000000e+01 7.234035093991e-01 
3.050000000000e+01 7.234035093991e-01 
3.052500000000e+01 7.152473371957e-01 
3.052500000000e+01 7.152473371957e-01 
3.052500000000e+01 7.152473371957e-01 
3.052500000000e+01 7.152473371957e-01 
3.052500000000e+01 7.152473371957e-01 
3.055000000000e+01 7.074470422112e-01 
3.055000000000e+01 7.074470422112e-01 
3.055000000000e+01 7.074470422112e-01 
3.055000000000e+01 7.074470422112e-01 
3.055000000000e+01 7.074470422112e-01 
3.057500000000e+01 6.999782156504e-01 
3.057500000000e+01 6.999782156504e-01 
3.057500000000e+01 6.999782156504e-01 
3.057500000000e+01 6.999782156504e-01 
3.057500000000e+01 6.999782156504e-01 
3.060000000000e+01 6.928185651596e-01 
3.060000000000e+01 6.928185651596e-01 
3.060000000000e+01 6.928185651596e-01 
3.060000000000e+01 6.928185651596e-01 
3.060000000000e+01 6.928185651596e-01 
3.062500000000e+01 6.859477139679e-01 
3.062500000000e+01 6.859477139679e-01 
3.062500000000e+01 6.859477139679e-01 
3.062500000000e+01 6.859477139679e-01 
3.062500000000e+01 6.859477139679e-01 
3.065000000000e+01 6.793470165436e-01 
3.065000000000e+01 6.793470165436e-01 
3.065000000000e+01 6.793470165436e-01 
3.065000000000e+01 6.793470165436e-01 
3.065000000000e+01 6.793470165436e-01 
3.067500000000e+01 6.729993909360e-01 
3.067500000000e+01 6.729993909360e-01 
3.067500000000e+01 6.729993909360e-01 
3.067500000000e+01 6.729993909360e-01 
3.067500000000e+01 6.729993909360e-01 
3.070000000000e+01 6.668891672206e-01 
3.070000000000e+01 6.668891672206e-01 
3.070000000000e+01 6.668891672206e-01 
3.070000000000e+01 6.668891672206e-01 
3.070000000000e+01 6.668891672206e-01 
3.072500000000e+01 6.610019510587e-01 
3.072500000000e+01 6.610019510587e-01 
3.072500000000e+01 6.610019510587e-01 
3.072500000000e+01 6.610019510587e-01 
3.072500000000e+01 6.610019510587e-01 
3.075000000000e+01 6.553245011865e-01 
3.075000000000e+01 6.553245011865e-01 
3.075000000000e+01 6.553245011865e-01 
3.075000000000e+01 6.553245011865e-01 
3.075000000000e+01 6.553245011865e-01 
3.077500000000e+01 6.498446195878e-01 
3.077500000000e+01 6.498446195878e-01 
3.077500000000e+01 6.498446195878e-01 
3.077500000000e+01 6.498446195878e-01 
3.077500000000e+01 6.498446195878e-01 
3.080000000000e+01 6.445510531188e-01 
3.080000000000e+01 6.445510531188e-01 
3.080000000000e+01 6.445510531188e-01 
3.080000000000e+01 6.445510531188e-01 
3.080000000000e+01 6.445510531188e-01 
3.082500000000e+01 6.394334054150e-01 
3.082500000000e+01 6.394334054150e-01 
3.082500000000e+01 6.394334054150e-01 
3.082500000000e+01 6.394334054150e-01 
3.082500000000e+01 6.394334054150e-01 
3.085000000000e+01 6.344820579917e-01 
3.085000000000e+01 6.344820579917e-01 
3.085000000000e+01 6.344820579917e-01 
3.085000000000e+01 6.344820579917e-01 
3.085000000000e+01 6.344820579917e-01 
3.087500000000e+01 6.296880995462e-01 
3.087500000000e+01 6.296880995462e-01 
3.087500000000e+01 6.296880995462e-01 
3.087500000000e+01 6.296880995462e-01 
3.087500000000e+01 6.296880995462e-01 
3.090000000000e+01 6.250432625624e-01 
3.090000000000e+01 6.250432625624e-01 
3.090000000000e+01 6.250432625624e-01 
3.090000000000e+01 6.250432625624e-01 
3.090000000000e+01 6.250432625624e-01 
3.092500000000e+01 6.205398664126e-01 
3.092500000000e+01 6.205398664126e-01 
3.092500000000e+01 6.205398664126e-01 
3.092500000000e+01 6.205398664126e-01 
3.092500000000e+01 6.205398664126e-01 
3.095000000000e+01 6.161707662369e-01 
3.095000000000e+01 6.161707662369e-01 
3.095000000000e+01 6.161707662369e-01 
3.095000000000e+01 6.161707662369e-01 
3.095000000000e+01 6.161707662369e-01 
3.097500000000e+01 6.119293069613e-01 
3.097500000000e+01 6.119293069613e-01 
3.097500000000e+01 6.119293069613e-01 
3.097500000000e+01 6.119293069613e-01 
3.097500000000e+01 6.119293069613e-01 
3.100000000000e+01 6.078092818871e-01 
3.100000000000e+01 6.078092818871e-01 
3.100000000000e+01 6.078092818871e-01 
3.100000000000e+01 6.078092818871e-01 
3.100000000000e+01 6.078092818871e-01 
3.102500000000e+01 6.038048953494e-01 
3.102500000000e+01 6.038048953494e-01 
3.102500000000e+01 6.038048953494e-01 
3.102500000000e+01 6.038048953494e-01 
3.102500000000e+01 6.038048953494e-01 
3.105000000000e+01 5.999107290013e-01 
3.105000000000e+01 5.999107290013e-01 
3.105000000000e+01 5.999107290013e-01 
3.105000000000e+01 5.999107290013e-01 
3.105000000000e+01 5.999107290013e-01 
3.107500000000e+01 5.961217113309e-01 
3.107500000000e+01 5.961217113309e-01 
3.107500000000e+01 5.961217113309e-01 
3.107500000000e+01 5.961217113309e-01 
3.107500000000e+01 5.961217113309e-01 
3.110000000000e+01 5.924330900627e-01 
3.110000000000e+01 5.924330900627e-01 
3.110000000000e+01 5.924330900627e-01 
3.110000000000e+01 5.924330900627e-01 
3.110000000000e+01 5.924330900627e-01 
3.112500000000e+01 5.888404071392e-01 
3.112500000000e+01 5.888404071392e-01 
3.112500000000e+01 5.888404071392e-01 
3.112500000000e+01 5.888404071392e-01 
3.112500000000e+01 5.888404071392e-01 
3.115000000000e+01 5.853394760078e-01 
3.115000000000e+01 5.853394760078e-01 
3.115000000000e+01 5.853394760078e-01 
3.115000000000e+01 5.853394760078e-01 
3.115000000000e+01 5.853394760078e-01 
3.117500000000e+01 5.819263609758e-01 
3.117500000000e+01 5.819263609758e-01 
3.117500000000e+01 5.819263609758e-01 
3.117500000000e+01 5.819263609758e-01 
3.117500000000e+01 5.819263609758e-01 
3.120000000000e+01 5.785973584173e-01 
3.120000000000e+01 5.785973584173e-01 
3.120000000000e+01 5.785973584173e-01 
3.120000000000e+01 5.785973584173e-01 
3.120000000000e+01 5.785973584173e-01 
3.122500000000e+01 5.753489796460e-01 
3.122500000000e+01 5.753489796460e-01 
3.122500000000e+01 5.753489796460e-01 
3.122500000000e+01 5.753489796460e-01 
3.122500000000e+01 5.753489796460e-01 
3.125000000000e+01 5.721779352840e-01 
3.125000000000e+01 5.721779352840e-01 
3.125000000000e+01 5.721779352840e-01 
3.125000000000e+01 5.721779352840e-01 
3.125000000000e+01 5.721779352840e-01 
3.127500000000e+01 5.690811209785e-01 
3.127500000000e+01 5.690811209785e-01 
3.127500000000e+01 5.690811209785e-01 
3.127500000000e+01 5.690811209785e-01 
3.127500000000e+01 5.690811209785e-01 
3.130000000000e+01 5.660556043336e-01 
3.130000000000e+01 5.660556043336e-01 
3.130000000000e+01 5.660556043336e-01 
3.130000000000e+01 5.660556043336e-01 
3.130000000000e+01 5.660556043336e-01 
3.132500000000e+01 5.630986129391e-01 
3.132500000000e+01 5.630986129391e-01 
3.132500000000e+01 5.630986129391e-01 
3.132500000000e+01 5.630986129391e-01 
3.132500000000e+01 5.630986129391e-01 
3.135000000000e+01 5.602075233904e-01 
3.135000000000e+01 5.602075233904e-01 
3.135000000000e+01 5.602075233904e-01 
3.135000000000e+01 5.602075233904e-01 
3.135000000000e+01 5.602075233904e-01 
3.137500000000e+01 5.573798512060e-01 
3.137500000000e+01 5.573798512060e-01 
3.137500000000e+01 5.573798512060e-01 
3.137500000000e+01 5.573798512060e-01 
3.137500000000e+01 5.573798512060e-01 
3.140000000000e+01 5.546132415581e-01 
3.140000000000e+01 5.546132415581e-01 
3.140000000000e+01 5.546132415581e-01 
3.140000000000e+01 5.546132415581e-01 
3.140000000000e+01 5.546132415581e-01 
3.142500000000e+01 5.519054607414e-01 
3.142500000000e+01 5.519054607414e-01 
3.142500000000e+01 5.519054607414e-01 
3.142500000000e+01 5.519054607414e-01 
3.142500000000e+01 5.519054607414e-01 
3.145000000000e+01 5.492543883110e-01 
3.145000000000e+01 5.492543883110e-01 
3.145000000000e+01 5.492543883110e-01 
3.145000000000e+01 5.492543883110e-01 
3.145000000000e+01 5.492543883110e-01 
3.147500000000e+01 5.466580098318e-01 
3.147500000000e+01 5.466580098318e-01 
3.147500000000e+01 5.466580098318e-01 
3.147500000000e+01 5.466580098318e-01 
3.147500000000e+01 5.466580098318e-01 
3.150000000000e+01 5.441144101810e-01 
3.150000000000e+01 5.441144101810e-01 
3.150000000000e+01 5.441144101810e-01 
3.150000000000e+01 5.441144101810e-01 
3.150000000000e+01 5.441144101810e-01 
3.152500000000e+01 5.416217673588e-01 
3.152500000000e+01 5.416217673588e-01 
3.152500000000e+01 5.416217673588e-01 
3.152500000000e+01 5.416217673588e-01 
3.152500000000e+01 5.416217673588e-01 
3.155000000000e+01 5.391783467591e-01 
3.155000000000e+01 5.391783467591e-01 
3.155000000000e+01 5.391783467591e-01 
3.155000000000e+01 5.391783467591e-01 
3.155000000000e+01 5.391783467591e-01 
3.157500000000e+01 5.367824958643e-01 
3.157500000000e+01 5.367824958643e-01 
3.157500000000e+01 5.367824958643e-01 
3.157500000000e+01 5.367824958643e-01 
3.157500000000e+01 5.367824958643e-01 
3.160000000000e+01 5.344326393247e-01 
3.160000000000e+01 5.344326393247e-01 
3.160000000000e+01 5.344326393247e-01 
3.160000000000e+01 5.344326393247e-01 
3.160000000000e+01 5.344326393247e-01 
3.162500000000e+01 5.321272743928e-01 
3.162500000000e+01 5.321272743928e-01 
3.162500000000e+01 5.321272743928e-01 
3.162500000000e+01 5.321272743928e-01 
3.162500000000e+01 5.321272743928e-01 
3.165000000000e+01 5.298649666811e-01 
3.165000000000e+01 5.298649666811e-01 
3.165000000000e+01 5.298649666811e-01 
3.165000000000e+01 5.298649666811e-01 
3.165000000000e+01 5.298649666811e-01 
3.167500000000e+01 5.276443462180e-01 
3.167500000000e+01 5.276443462180e-01 
3.167500000000e+01 5.276443462180e-01 
3.167500000000e+01 5.276443462180e-01 
3.167500000000e+01 5.276443462180e-01 
3.170000000000e+01 5.254641037767e-01 
3.170000000000e+01 5.254641037767e-01 
3.170000000000e+01 5.254641037767e-01 
3.170000000000e+01 5.254641037767e-01 
3.170000000000e+01 5.254641037767e-01 
3.172500000000e+01 5.233229874560e-01 
3.172500000000e+01 5.233229874560e-01 
3.172500000000e+01 5.233229874560e-01 
3.172500000000e+01 5.233229874560e-01 
3.172500000000e+01 5.233229874560e-01 
3.175000000000e+01 5.212197994921e-01 
3.175000000000e+01 5.212197994921e-01 
3.175000000000e+01 5.212197994921e-01 
3.175000000000e+01 5.212197994921e-01 
3.175000000000e+01 5.212197994921e-01 
3.177500000000e+01 5.191533932842e-01 
3.177500000000e+01 5.191533932842e-01 
3.177500000000e+01 5.191533932842e-01 
3.177500000000e+01 5.191533932842e-01 
3.177500000000e+01 5.191533932842e-01 
3.180000000000e+01 5.171226706164e-01 
3.180000000000e+01 5.171226706164e-01 
3.180000000000e+01 5.171226706164e-01 
3.180000000000e+01 5.171226706164e-01 
3.180000000000e+01 5.171226706164e-01 
3.182500000000e+01 5.151265790614e-01 
3.182500000000e+01 5.151265790614e-01 
3.182500000000e+01 5.151265790614e-01 
3.182500000000e+01 5.151265790614e-01 
3.182500000000e+01 5.151265790614e-01 
3.185000000000e+01 5.131641095520e-01 
3.185000000000e+01 5.131641095520e-01 
3.185000000000e+01 5.131641095520e-01 
3.185000000000e+01 5.131641095520e-01 
3.185000000000e+01 5.131641095520e-01 
3.187500000000e+01 5.112342941078e-01 
3.187500000000e+01 5.112342941078e-01 
3.187500000000e+01 5.112342941078e-01 
3.187500000000e+01 5.112342941078e-01 
3.187500000000e+01 5.112342941078e-01 
3.190000000000e+01 5.093362037054e-01 
3.190000000000e+01 5.093362037054e-01 
3.190000000000e+01 5.093362037054e-01 
3.190000000000e+01 5.093362037054e-01 
3.190000000000e+01 5.093362037054e-01 
3.192500000000e+01 5.074689462822e-01 
3.192500000000e+01 5.074689462822e-01 
3.192500000000e+01 5.074689462822e-01 
3.192500000000e+01 5.074689462822e-01 
3.192500000000e+01 5.074689462822e-01 
3.195000000000e+01 5.056316648631e-01 
3.195000000000e+01 5.056316648631e-01 
3.195000000000e+01 5.056316648631e-01 
3.195000000000e+01 5.056316648631e-01 
3.195000000000e+01 5.056316648631e-01 
3.197500000000e+01 5.038235358020e-01 
3.197500000000e+01 5.038235358020e-01 
3.197500000000e+01 5.038235358020e-01 
3.197500000000e+01 5.038235358020e-01 
3.197500000000e+01 5.038235358020e-01 
3.200000000000e+01 4.962183623633e-01 
3.200000000000e+01 4.962546675736e-01 
3.200000000000e+01 4.962728113668e-01 
3.200000000000e+01 4.962365178888e-01 
3.200000000000e+01 4.962909492174e-01 
3.550429651422e+01 3.736517106041e-01 
3.551229295793e+01 3.734919163407e-01 
3.552028940163e+01 3.733324254465e-01 
3.552828584533e+01 3.731732369321e-01 
3.553628228904e+01 3.730143498124e-01 
3.900859302845e+01 3.280913456842e-01 
3.902458591586e+01 3.279305087378e-01 
3.904057880326e+01 3.277700499189e-01 
3.905657169067e+01 3.276099676795e-01 
3.907256457807e+01 3.274502604804e-01 
4.251288954267e+01 3.004608537666e-01 
4.253687887378e+01 3.003051849969e-01 
4.256086820489e+01 3.001499113810e-01 
4.258485753600e+01 2.999950311692e-01 
4.260884686711e+01 2.998405426224e-01 
4.601718605690e+01 2.813813886032e-01 
4.604917183171e+01 2.812319017093e-01 
4.608115760652e+01 2.810828102556e-01 
4.611314338134e+01 2.809341124165e-01 
4.614512915615e+01 2.807858063780e-01 
4.952148257112e+01 2.670915389913e-01 
4.956146478964e+01 2.669478918626e-01 
4.960144700815e+01 2.668046346734e-01 
4.964142922667e+01 2.666617655760e-01 
4.968141144519e+01 2.665192827353e-01 
 TITLE = "Profiles along polylines"
 VARIABLES = "DIST" "SATURATION1" 
 ZONE T="TIME=1.797693134862e+308"
1.452148257112e+01 1.000000000000e+00 
1.456146478964e+01 1.000000000000e+00 
1.460144700815e+01 1.000000000000e+00 
1.464142922667e+01 1.000000000000e+00 
1.468141144519e+01 1.000000000000e+00 
1.503743315209e+01 1.000000000000e+00 
1.507608262998e+01 1.000000000000e+00 
1.511473210788e+01 1.000000000000e+00 
1.515338158578e+01 1.000000000000e+00 
1.519203106368e+01 1.000000000000e+00 
1.555338373305e+01 1.000000000000e+00 
1.559070047033e+01 1.000000000000e+00 
1.562801720761e+01 1.000000000000e+00 
1.566533394489e+01 1.000000000000e+00 
1.570265068217e+01 1.000000000000e+00 
1.606933431401e+01 1.000000000000e+00 
1.610531831067e+01 1.000000000000e+00 
1.614130230734e+01 1.000000000000e+00 
1.617728630400e+01 1.000000000000e+00 
1.621327030067e+01 1.000000000000e+00 
1.658528489497e+01 1.000000000000e+00 
1.661993615102e+01 1.000000000000e+00 
1.665458740707e+01 1.000000000000e+00 
1.668923866311e+01 1.000000000000e+00 
1.672388991916e+01 1.000000000000e+00 
1.710123547594e+01 1.000000000000e+00 
1.713455399137e+01 1.000000000000e+00 
1.716787250680e+01 1.000000000000e+00 
1.720119102223e+01 1.000000000000e+00 
1.723450953766e+01 1.000000000000e+00 
1.761718605690e+01 1.000000000000e+00 
1.764917183171e+01 1.000000000000e+00 
1.768115760652e+01 1.000000000000e+00 
1.771314338134e+01 1.000000000000e+00 
1.774512915615e+01 1.000000000000e+00 
1.813313663786e+01 1.000000000000e+00 
1.816378967206e+01 1.000000000000e+00 
1.819444270625e+01 1.000000000000e+00 
1.822509574045e+01 1.000000000000e+00 
1.825574877464e+01 1.000000000000e+00 
1.864908721882e+01 1.000000000000e+00 
1.867840751240e+01 1.000000000000e+00 
1.870772780598e+01 1.000000000000e+00 
1.873704809956e+01 1.000000000000e+00 
1.876636839314e+01 1.000000000000e+00 
1.916503779978e+01 1.000000000000e+00 
1.919302535275e+01 1.000000000000e+00 
1.922101290571e+01 1.000000000000e+00 
1.924900045867e+01 1.000000000000e+00 
1.927698801163e+01 1.000000000000e+00 
1.968098838075e+01 1.000000000000e+00 
1.970764319309e+01 1.000000000000e+00 
1.973429800543e+01 1.000000000000e+00 
1.976095281778e+01 1.000000000000e+00 
1.978760763012e+01 1.000000000000e+00 
2.019693896171e+01 1.000000000000e+00 
2.022226103343e+01 1.000000000000e+00 
2.024758310516e+01 1.000000000000e+00 
2.027290517689e+01 1.000000000000e+00 
2.029822724861e+01 1.000000000000e+00 
2.071288954267e+01 1.000000000000e+00 
2.073687887378e+01 1.000000000000e+00 
2.076086820489e+01 1.000000000000e+00 
2.078485753600e+01 1.000000000000e+00 
2.080884686711e+01 1.000000000000e+00 
2.122884012363e+01 1.000000000000e+00 
2.125149671412e+01 1.000000000000e+00 
2.127415330462e+01 1.000000000000e+00 
2.129680989511e+01 1.000000000000e+00 
2.131946648560e+01 1.000000000000e+00 
2.174479070459e+01 1.000000000000e+00 
2.176611455447e+01 1.000000000000e+00 
2.178743840434e+01 1.000000000000e+00 
2.180876225422e+01 1.000000000000e+00 
2.183008610409e+01 1.000000000000e+00 
2.226074128555e+01 1.000000000000e+00 
2.228073239481e+01 1.000000000000e+00 
2.230072350407e+01 1.000000000000e+00 
2.232071461333e+01 1.000000000000e+00 
2.234070572259e+01 1.000000000000e+00 
2.277669186652e+01 1.000000000000e+00 
2.279535023516e+01 1.000000000000e+00 
2.281400860380e+01 1.000000000000e+00 
2.283266697244e+01 1.000000000000e+00 
2.285132534108e+01 1.000000000000e+00 
2.329264244748e+01 1.000000000000e+00 
2.330996807550e+01 1.000000000000e+00 
2.332729370353e+01 1.000000000000e+00 
2.334461933155e+01 1.000000000000e+00 
2.336194495957e+01 1.000000000000e+00 
2.380859302844e+01 1.000000000000e+00 
2.382458591585e+01 1.000000000000e+00 
2.384057880326e+01 1.000000000000e+00 
2.385657169066e+01 1.000000000000e+00 
2.387256457807e+01 1.000000000000e+00 
2.432454360941e+01 1.000000000000e+00 
2.433920375620e+01 1.000000000000e+00 
2.435386390298e+01 1.000000000000e+00 
2.436852404977e+01 1.000000000000e+00 
2.438318419656e+01 1.000000000000e+00 
2.484049419037e+01 1.000000000000e+00 
2.485382159654e+01 1.000000000000e+00 
2.486714900271e+01 1.000000000000e+00 
2.488047640889e+01 1.000000000000e+00 
2.489380381506e+01 1.000000000000e+00 
2.535644477133e+01 1.000000000000e+00 
2.536843943689e+01 1.000000000000e+00 
2.538043410244e+01 1.000000000000e+00 
2.539242876800e+01 1.000000000000e+00 
2.540442343355e+01 1.000000000000e+00 
2.587239535230e+01 1.000000000000e+00 
2.588305727723e+01 1.000000000000e+00 
2.589371920217e+01 1.000000000000e+00 
2.590438112711e+01 1.000000000000e+00 
2.591504305205e+01 1.000000000000e+00 
2.638834593326e+01 1.000000000000e+00 
2.639767511758e+01 1.000000000000e+00 
2.640700430190e+01 1.000000000000e+00 
2.641633348622e+01 1.000000000000e+00 
2.642566267054e+01 1.000000000000e+00 
2.690429651422e+01 1.000000000000e+00 
2.691229295792e+01 1.000000000000e+00 
2.692028940163e+01 1.000000000000e+00 
2.692828584533e+01 1.000000000000e+00 
2.693628228903e+01 1.000000000000e+00 
2.742024709518e+01 1.000000000000e+00 
2.742691079827e+01 1.000000000000e+00 
2.743357450136e+01 1.000000000000e+00 
2.744023820444e+01 1.000000000000e+00 
2.744690190753e+01 1.000000000000e+00 
2.793619767615e+01 1.000000000000e+00 
2.794152863862e+01 1.000000000000e+00 
2.794685960109e+01 1.000000000000e+00 
2.795219056355e+01 1.000000000000e+00 
2.795752152602e+01 1.000000000000e+00 
2.845214825711e+01 1.000000000000e+00 
2.845614647896e+01 1.000000000000e+00 
2.846014470081e+01 1.000000000000e+00 
2.846414292267e+01 1.000000000000e+00 
2.846814114452e+01 1.000000000000e+00 
2.896809883807e+01 1.000000000000e+00 
2.897076431931e+01 1.000000000000e+00 
2.897342980054e+01 1.000000000000e+00 
2.897609528178e+01 1.000000000000e+00 
2.897876076301e+01 1.000000000000e+00 
2.948404941904e+01 1.000000000000e+00 
2.948538215965e+01 1.000000000000e+00 
2.948671490027e+01 1.000000000000e+00 
2.948804764089e+01 1.000000000000e+00 
2.948938038151e+01 1.000000000000e+00 
3.000000000000e+01 1.000000000000e+00 
3.000000000000e+01 1.000000000000e+00 
3.000000000000e+01 1.000000000000e+00 
3.000000000000e+01 1.000000000000e+00 
3.000000000000e+01 1.000000000000e+00 
3.002500000000e+01 1.000000000000e+00 
3.002500000000e+01 1.000000000000e+00 
3.002500000000e+01 1.000000000000e+00 
3.002500000000e+01 1.000000000000e+00 
3.002500000000e+01 1.000000000000e+00 
3.005000000000e+01 1.000000000000e+00 
3.005000000000e+01 1.000000000000e+00 
3.005000000000e+01 1.000000000000e+00 
3.005000000000e+01 1.000000000000e+00 
3.005000000000e+01 1.000000000000e+00 
3.007500000000e+01 1.000000000000e+00 
3.007500000000e+01 1.000000000000e+00 
3.007500000000e+01 1.000000000000e+00 
3.007500000000e+01 1.000000000000e+00 
3.007500000000e+01 1.000000000000e+00 
3.010000000000e+01 1.000000000000e+00 
3.010000000000e+01 1.000000000000e+00 
3.010000000000e+01 1.000000000000e+00 
3.010000000000e+01 1.000000000000e+00 
3.010000000000e+01 1.000000000000e+00 
3.012500000000e+01 1.000000000000e+00 
3.012500000000e+01 1.000000000000e+00 
3.012500000000e+01 1.000000000000e+00 
3.012500000000e+01 1.000000000000e+00 
3.012500000000e+01 1.000000000000e+00 
3.015000000000e+01 1.000000000000e+00 
3.015000000000e+01 1.000000000000e+00 
3.015000000000e+01 1.000000000000e+00 