 TITLE = "Profiles along polylines"
 VARIABLES = "DIST" "SATURATION1" 
 ZONE T="TIME=0.000000000000e+00"
1.640561344898e+00 1.000000000000e+00 
1.645563056316e+00 1.000000000000e+00 
1.650564767733e+00 1.000000000000e+00 
1.655566479150e+00 1.000000000000e+00 
1.660568190568e+00 1.000000000000e+00 
2.585875966735e+00 1.000000000000e+00 
2.590710954438e+00 1.000000000000e+00 
2.595545942142e+00 1.000000000000e+00 
2.600380929845e+00 1.000000000000e+00 
2.605215917549e+00 1.000000000000e+00 
3.531190588571e+00 1.000000000000e+00 
3.535858852560e+00 1.000000000000e+00 
3.540527116550e+00 1.000000000000e+00 
3.545195380540e+00 1.000000000000e+00 
3.549863644529e+00 1.000000000000e+00 
4.476505210408e+00 1.000000000000e+00 
4.481006750684e+00 1.000000000000e+00 
4.485508290959e+00 1.000000000000e+00 
4.490009831235e+00 1.000000000000e+00 
4.494511371511e+00 1.000000000000e+00 
5.421819832245e+00 1.000000000000e+00 
5.426154648807e+00 1.000000000000e+00 
5.430489465368e+00 1.000000000000e+00 
5.434824281930e+00 1.000000000000e+00 
5.439159098492e+00 1.000000000000e+00 
6.367134454081e+00 1.000000000000e+00 
6.371302546929e+00 1.000000000000e+00 
6.375470639777e+00 1.000000000000e+00 
6.379638732624e+00 1.000000000000e+00 
6.383806825472e+00 1.000000000000e+00 
7.312449075917e+00 1.000000000000e+00 
7.316450445051e+00 1.000000000000e+00 
7.320451814185e+00 1.000000000000e+00 
7.324453183319e+00 1.000000000000e+00 
7.328454552453e+00 1.000000000000e+00 
8.257763697753e+00 1.000000000000e+00 
8.261598343173e+00 1.000000000000e+00 
8.265432988593e+00 1.000000000000e+00 
8.269267634013e+00 1.000000000000e+00 
8.273102279433e+00 1.000000000000e+00 
9.203078319589e+00 1.000000000000e+00 
9.206746241295e+00 1.000000000000e+00 
9.210414163001e+00 1.000000000000e+00 
9.214082084707e+00 1.000000000000e+00 
9.217750006413e+00 1.000000000000e+00 
1.014839294142e+01 1.000000000000e+00 
1.015189413941e+01 1.000000000000e+00 
1.015539533741e+01 1.000000000000e+00 
1.015889653540e+01 1.000000000000e+00 
1.016239773339e+01 1.000000000000e+00 
1.109370756326e+01 1.000000000000e+00 
1.109704203753e+01 1.000000000000e+00 
1.110037651181e+01 1.000000000000e+00 
1.110371098609e+01 1.000000000000e+00 
1.110704546037e+01 1.000000000000e+00 
1.203902218509e+01 1.000000000000e+00 
1.204218993565e+01 1.000000000000e+00 
1.204535768622e+01 1.000000000000e+00 
1.204852543678e+01 1.000000000000e+00 
1.205169318735e+01 1.000000000000e+00 
1.298433680692e+01 1.000000000000e+00 
1.298733783377e+01 1.000000000000e+00 
1.299033886062e+01 1.000000000000e+00 
1.299333988747e+01 1.000000000000e+00 
1.299634091432e+01 1.000000000000e+00 
1.392965142876e+01 1.000000000000e+00 
1.393248573189e+01 1.000000000000e+00 
1.393532003503e+01 1.000000000000e+00 
1.393815433817e+01 1.000000000000e+00 
1.394098864130e+01 1.000000000000e+00 
1.487496605059e+01 1.000000000000e+00 
1.487763363001e+01 1.000000000000e+00 
1.488030120944e+01 1.000000000000e+00 
1.488296878886e+01 1.000000000000e+00 
1.488563636828e+01 1.000000000000e+00 
1.582028067242e+01 1.000000000000e+00 
1.582278152813e+01 1.000000000000e+00 
1.582528238384e+01 1.000000000000e+00 
1.582778323955e+01 1.000000000000e+00 
1.583028409526e+01 1.000000000000e+00 
1.676559529426e+01 1.000000000000e+00 
1.676792942626e+01 1.000000000000e+00 
1.677026355825e+01 1.000000000000e+00 
1.677259769025e+01 1.000000000000e+00 
1.677493182224e+01 1.000000000000e+00 
1.771090991610e+01 1.000000000000e+00 
1.771307732438e+01 1.000000000000e+00 
1.771524473266e+01 1.000000000000e+00 
1.771741214094e+01 1.000000000000e+00 
1.771957954922e+01 1.000000000000e+00 
1.865622453794e+01 1.000000000000e+00 
1.865822522251e+01 1.000000000000e+00 
1.866022590707e+01 1.000000000000e+00 
1.866222659164e+01 1.000000000000e+00 
1.866422727621e+01 1.000000000000e+00 
1.960153915978e+01 1.000000000000e+00 
1.960337312063e+01 1.000000000000e+00 
1.960520708148e+01 1.000000000000e+00 
1.960704104234e+01 1.000000000000e+00 
1.960887500319e+01 1.000000000000e+00 
2.054685378162e+01 1.000000000000e+00 
2.054852101875e+01 1.000000000000e+00 
2.055018825589e+01 1.000000000000e+00 
2.055185549303e+01 1.000000000000e+00 
2.055352273017e+01 1.000000000000e+00 
2.149216840345e+01 1.000000000000e+00 
2.149366891688e+01 1.000000000000e+00 
2.149516943030e+01 1.000000000000e+00 
2.149666994373e+01 1.000000000000e+00 
2.149817045715e+01 1.000000000000e+00 
2.243748302529e+01 1.000000000000e+00 
2.243881681500e+01 1.000000000000e+00 
2.244015060472e+01 1.000000000000e+00 
2.244148439443e+01 1.000000000000e+00 
2.244281818414e+01 1.000000000000e+00 
2.338279764713e+01 1.000000000000e+00 
2.338396471313e+01 1.000000000000e+00 
2.338513177913e+01 1.000000000000e+00 
2.338629884512e+01 1.000000000000e+00 
2.338746591112e+01 1.000000000000e+00 
2.432811226897e+01 1.000000000000e+00 
2.432911261125e+01 1.000000000000e+00 
2.433011295354e+01 1.000000000000e+00 
2.433111329582e+01 1.000000000000e+00 
2.433211363810e+01 1.000000000000e+00 
2.527342689081e+01 1.000000000000e+00 
2.527426050938e+01 1.000000000000e+00 
2.527509412795e+01 1.000000000000e+00 
2.527592774652e+01 1.000000000000e+00 
2.527676136509e+01 1.000000000000e+00 
2.621874151265e+01 1.000000000000e+00 
2.621940840750e+01 1.000000000000e+00 
2.622007530236e+01 1.000000000000e+00 
2.622074219721e+01 1.000000000000e+00 
2.622140909207e+01 1.000000000000e+00 
2.716405613448e+01 1.000000000000e+00 
2.716455630563e+01 1.000000000000e+00 
2.716505647677e+01 1.000000000000e+00 
2.716555664791e+01 1.000000000000e+00 
2.716605681905e+01 1.000000000000e+00 
2.810937075632e+01 1.000000000000e+00 
2.810970420375e+01 1.000000000000e+00 
2.811003765118e+01 1.000000000000e+00 
2.811037109861e+01 1.000000000000e+00 
2.811070454603e+01 1.000000000000e+00 
2.905468537816e+01 1.000000000000e+00 
2.905485210188e+01 1.000000000000e+00 
2.905501882559e+01 1.000000000000e+00 
2.905518554930e+01 1.000000000000e+00 
2.905535227302e+01 1.000000000000e+00 
3.000000000000e+01 1.000000000000e+00 
3.000000000000e+01 1.000000000000e+00 
3.000000000000e+01 1.000000000000e+00 
3.000000000000e+01 1.000000000000e+00 
3.000000000000e+01 1.000000000000e+00 
3.002500000000e+01 9.876207709446e-01 
3.002500000000e+01 9.876207709446e-01 
3.002500000000e+01 9.876207709446e-01 
3.002500000000e+01 9.876207709446e-01 
3.002500000000e+01 9.876207709446e-01 
3.005000000000e+01 9.697756439369e-01 
3.005000000000e+01 9.697756439369e-01 
3.005000000000e+01 9.697756439369e-01 
3.005000000000e+01 9.697756439369e-01 
3.005000000000e+01 9.697756439369e-01 
3.007500000000e+01 9.507134089444e-01 
3.007500000000e+01 9.507134089444e-01 
3.007500000000e+01 9.507134089444e-01 
3.007500000000e+01 9.507134089444e-01 
3.007500000000e+01 9.507134089444e-01 
3.010000000000e+01 9.315621650298e-01 
3.010000000000e+01 9.315621650298e-01 
3.010000000000e+01 9.315621650298e-01 
3.010000000000e+01 9.315621650298e-01 
3.010000000000e+01 9.315621650298e-01 
3.012500000000e+01 9.128758324042e-01 
3.012500000000e+01 9.128758324042e-01 
3.012500000000e+01 9.128758324042e-01 
3.012500000000e+01 9.128758324042e-01 
3.012500000000e+01 9.128758324042e-01 
3.015000000000e+01 8.949248043380e-01 
3.015000000000e+01 8.949248043380e-01 
3.015000000000e+01 8.949248043380e-01 
3.015000000000e+01 8.949248043380e-01 
3.015000000000e+01 8.949248043380e-01 
3.017500000000e+01 8.778290027968e-01 
3.017500000000e+01 8.778290027968e-01 
3.017500000000e+01 8.778290027968e-01 
3.017500000000e+01 8.778290027968e-01 
3.017500000000e+01 8.778290027968e-01 
3.020000000000e+01 8.616255702900e-01 
3.020000000000e+01 8.616255702900e-01 
3.020000000000e+01 8.616255702900e-01 
3.020000000000e+01 8.616255702900e-01 
3.020000000000e+01 8.616255702900e-01 
3.022500000000e+01 8.463059583920e-01 
3.022500000000e+01 8.463059583920e-01 
3.022500000000e+01 8.463059583920e-01 
3.022500000000e+01 8.463059583920e-01 
3.022500000000e+01 8.463059583920e-01 
3.025000000000e+01 8.318370344398e-01 
3.025000000000e+01 8.318370344398e-01 
3.025000000000e+01 8.318370344398e-01 
3.025000000000e+01 8.318370344398e-01 
3.025000000000e+01 8.318370344398e-01 
3.027500000000e+01 8.181733156316e-01 
3.027500000000e+01 8.181733156316e-01 
3.027500000000e+01 8.181733156316e-01 
3.027500000000e+01 8.181733156316e-01 
3.027500000000e+01 8.181733156316e-01 
3.030000000000e+01 8.052640970350e-01 
3.030000000000e+01 8.052640970350e-01 
3.030000000000e+01 8.052640970350e-01 
3.030000000000e+01 8.052640970350e-01 
3.030000000000e+01 8.052640970350e-01 
3.032500000000e+01 7.930575753856e-01 
3.032500000000e+01 7.930575753856e-01 
3.032500000000e+01 7.930575753856e-01 
3.032500000000e+01 7.930575753856e-01 
3.032500000000e+01 7.930575753856e-01 
3.035000000000e+01 7.815031815402e-01 
3.035000000000e+01 7.815031815402e-01 
3.035000000000e+01 7.815031815402e-01 
3.035000000000e+01 7.815031815402e-01 
3.035000000000e+01 7.815031815402e-01 
3.037500000000e+01 7.705528376764e-01 
3.037500000000e+01 7.705528376764e-01 
3.037500000000e+01 7.705528376764e-01 
3.037500000000e+01 7.705528376764e-01 
3.037500000000e+01 7.705528376764e-01 
3.040000000000e+01 7.601615689674e-01 
3.040000000000e+01 7.601615689674e-01 
3.040000000000e+01 7.601615689674e-01 
3.040000000000e+01 7.601615689674e-01 
3.040000000000e+01 7.601615689674e-01 
3.042500000000e+01 7.502877306002e-01 
3.042500000000e+01 7.502877306002e-01 
3.042500000000e+01 7.502877306002e-01 
3.042500000000e+01 7.502877306002e-01 
3.042500000000e+01 7.502877306002e-01 
3.045000000000e+01 7.408930096824e-01 
3.045000000000e+01 7.408930096824e-01 
3.045000000000e+01 7.408930096824e-01 
3.045000000000e+01 7.408930096824e-01 
3.045000000000e+01 7.408930096824e-01 
3.047500000000e+01 7.319422999608e-01 
3.047500000000e+01 7.319422999608e-01 
3.047500000000e+01 7.319422999608e-01 
3.047500000000e+01 7.319422999608e-01 
3.047500000000e+01 7.319422999608e-01 
3.050000000000e+01 7.234035093991e-01 
3.050000000000e+01 7.234035093991e-01 
3.050000000000e+01 7.234035093991e-01 
3.050000000000e+01 7.234035093991e-01 
3.050000000000e+01 7.234035093991e-01 
3.052500000000e+01 7.152473371957e-01 
3.052500000000e+01 7.152473371957e-01 
3.052500000000e+01 7.152473371957e-01 
3.052500000000e+01 7.152473371957e-01 
3.052500000000e+01 7.152473371957e-01 
3.055000000000e+01 7.074470422112e-01 
3.055000000000e+01 7.074470422112e-01 
3.055000000000e+01 7.074470422112e-01 
3.055000000000e+01 7.074470422112e-01 
3.055000000000e+01 7.074470422112e-01 
3.057500000000e+01 6.999782156504e-01 
3.057500000000e+01 6.999782156504e-01 
3.057500000000e+01 6.999782156504e-01 
3.057500000000e+01 6.999782156504e-01 
3.057500000000e+01 6.999782156504e-01 
3.060000000000e+01 6.928185651596e-01 
3.060000000000e+01 6.928185651596e-01 
3.060000000000e+01 6.928185651596e-01 
3.060000000000e+01 6.928185651596e-01 
3.060000000000e+01 6.928185651596e-01 
3.062500000000e+01 6.859477139679e-01 
3.062500000000e+01 6.859477139679e-01 
3.062500000000e+01 6.859477139679e-01 
3.062500000000e+01 6.859477139679e-01 
3.062500000000e+01 6.859477139679e-01 
3.065000000000e+01 6.793470165436e-01 
3.065000000000e+01 6.793470165436e-01 
3.065000000000e+01 6.793470165436e-01 
3.065000000000e+01 6.793470165436e-01 
3.065000000000e+01 6.793470165436e-01 
3.067500000000e+01 6.729993909360e-01 
3.067500000000e+01 6.729993909360e-01 
3.067500000000e+01 6.729993909360e-01 
3.067500000000e+01 6.729993909360e-01 
3.067500000000e+01 6.729993909360e-01 
3.070000000000e+01 6.668891672206e-01 
3.070000000000e+01 6.668891672206e-01 
3.070000000000e+01 6.668891672206e-01 
3.070000000000e+01 6.668891672206e-01 
3.070000000000e+01 6.668891672206e-01 
3.072500000000e+01 6.610019510587e-01 
3.072500000000e+01 6.610019510587e-01 
3.072500000000e+01 6.610019510587e-01 
3.072500000000e+01 6.610019510587e-01 
3.072500000000e+01 6.610019510587e-01 
3.075000000000e+01 6.553245011865e-01 
3.075000000000e+01 6.553245011865e-01 
3.075000000000e+01 6.553245011865e-01 
3.075000000000e+01 6.553245011865e-01 
3.075000000000e+01 6.553245011865e-01 
3.077500000000e+01 6.498446195878e-01 
3.077500000000e+01 6.498446195878e-01 
3.077500000000e+01 6.498446195878e-01 
3.077500000000e+01 6.498446195878e-01 
3.077500000000e+01 6.498446195878e-01 
3.080000000000e+01 6.445510531188e-01 
3.080000000000e+01 6.445510531188e-01 
3.080000000000e+01 6.445510531188e-01 
3.080000000000e+01 6.445510531188e-01 
3.080000000000e+01 6.445510531188e-01 
3.082500000000e+01 6.394334054150e-01 
3.082500000000e+01 6.394334054150e-01 
3.082500000000e+01 6.394334054150e-01 
3.082500000000e+01 6.394334054150e-01 
3.082500000000e+01 6.394334054150e-01 
3.085000000000e+01 6.344820579917e-01 
3.085000000000e+01 6.344820579917e-01 
3.085000000000e+01 6.344820579917e-01 
3.085000000000e+01 6.344820579917e-01 
3.085000000000e+01 6.344820579917e-01 
3.087500000000e+01 6.296880995462e-01 
3.087500000000e+01 6.296880995462e-01 
3.087500000000e+01 6.296880995462e-01 
3.087500000000e+01 6.296880995462e-01 
3.087500000000e+01 6.296880995462e-01 
3.090000000000e+01 6.250432625624e-01 
3.090000000000e+01 6.250432625624e-01 
3.090000000000e+01 6.250432625624e-01 
3.090000000000e+01 6.250432625624e-01 
3.090000000000e+01 6.250432625624e-01 
3.092500000000e+01 6.205398664126e-01 
3.092500000000e+01 6.205398664126e-01 
3.092500000000e+01 6.205398664126e-01 
3.092500000000e+01 6.205398664126e-01 
3.092500000000e+01 6.205398664126e-01 
3.095000000000e+01 6.161707662369e-01 
3.095000000000e+01 6.161707662369e-01 
3.095000000000e+01 6.161707662369e-01 
3.095000000000e+01 6.161707662369e-01 
3.095000000000e+01 6.161707662369e-01 
3.097500000000e+01 6.119293069613e-01 
3.097500000000e+01 6.119293069613e-01 
3.097500000000e+01 6.119293069613e-01 
3.097500000000e+01 6.119293069613e-01 
3.097500000000e+01 6.119293069613e-01 
3.100000000000e+01 6.078092818871e-01 
3.100000000000e+01 6.078092818871e-01 
3.100000000000e+01 6.078092818871e-01 
3.100000000000e+01 6.078092818871e-01 
3.100000000000e+01 6.078092818871e-01 
3.102500000000e+01 6.038048953494e-01 
3.102500000000e+01 6.038048953494e-01 
3.102500000000e+01 6.038048953494e-01 
3.102500000000e+01 6.038048953494e-01 
3.102500000000e+01 6.038048953494e-01 
3.105000000000e+01 5.999107290013e-01 
3.105000000000e+01 5.999107290013e-01 
3.105000000000e+01 5.999107290013e-01 
3.105000000000e+01 5.999107290013e-01 
3.105000000000e+01 5.999107290013e-01 
3.107500000000e+01 5.961217113309e-01 
3.107500000000e+01 5.961217113309e-01 
3.107500000000e+01 5.961217113309e-01 
3.107500000000e+01 5.961217113309e-01 
3.107500000000e+01 5.961217113309e-01 
3.110000000000e+01 5.924330900627e-01 
3.110000000000e+01 5.924330900627e-01 
3.110000000000e+01 5.924330900627e-01 
3.110000000000e+01 5.924330900627e-01 
3.110000000000e+01 5.924330900627e-01 
3.112500000000e+01 5.888404071392e-01 
3.112500000000e+01 5.888404071392e-01 
3.112500000000e+01 5.888404071392e-01 
3.112500000000e+01 5.888404071392e-01 
3.112500000000e+01 5.888404071392e-01 
3.115000000000e+01 5.853394760078e-01 
3.115000000000e+01 5.853394760078e-01 
3.115000000000e+01 5.853394760078e-01 
3.115000000000e+01 5.853394760078e-01 
3.115000000000e+01 5.853394760078e-01 
3.117500000000e+01 5.819263609758e-01 
3.117500000000e+01 5.819263609758e-01 
3.117500000000e+01 5.819263609758e-01 
3.117500000000e+01 5.819263609758e-01 
3.117500000000e+01 5.819263609758e-01 
3.120000000000e+01 5.785973584173e-01 
3.120000000000e+01 5.785973584173e-01 
3.120000000000e+01 5.785973584173e-01 
3.120000000000e+01 5.785973584173e-01 
3.120000000000e+01 5.785973584173e-01 
3.122500000000e+01 5.753489796460e-01 
3.122500000000e+01 5.753489796460e-01 
3.122500000000e+01 5.753489796460e-01 
3.122500000000e+01 5.753489796460e-01 
3.122500000000e+01 5.753489796460e-01 
3.125000000000e+01 5.721779352840e-01 
3.125000000000e+01 5.721779352840e-01 
3.125000000000e+01 5.721779352840e-01 
3.125000000000e+01 5.721779352840e-01 
3.125000000000e+01 5.721779352840e-01 
3.127500000000e+01 5.690811209785e-01 
3.127500000000e+01 5.690811209785e-01 
3.127500000000e+01 5.690811209785e-01 
3.127500000000e+01 5.690811209785e-01 
3.127500000000e+01 5.690811209785e-01 
3.130000000000e+01 5.660556043336e-01 
3.130000000000e+01 5.660556043336e-01 
3.130000000000e+01 5.660556043336e-01 
3.130000000000e+01 5.660556043336e-01 
3.130000000000e+01 5.660556043336e-01 
3.132500000000e+01 5.630986129391e-01 
3.132500000000e+01 5.630986129391e-01 
3.132500000000e+01 5.630986129391e-01 
3.132500000000e+01 5.630986129391e-01 
3.132500000000e+01 5.630986129391e-01 
3.135000000000e+01 5.602075233904e-01 
3.135000000000e+01 5.602075233904e-01 
3.135000000000e+01 5.602075233904e-01 
3.135000000000e+01 5.602075233904e-01 
3.135000000000e+01 5.602075233904e-01 
3.137500000000e+01 5.573798512060e-01 
3.137500000000e+01 5.573798512060e-01 
3.137500000000e+01 5.573798512060e-01 
3.137500000000e+01 5.573798512060e-01 
3.137500000000e+01 5.573798512060e-01 
3.140000000000e+01 5.546132415581e-01 
3.140000000000e+01 5.546132415581e-01 
3.140000000000e+01 5.546132415581e-01 
3.140000000000e+01 5.546132415581e-01 
3.140000000000e+01 5.546132415581e-01 
3.142500000000e+01 5.519054607414e-01 
3.142500000000e+01 5.519054607414e-01 
3.142500000000e+01 5.519054607414e-01 
3.142500000000e+01 5.519054607414e-01 
3.142500000000e+01 5.519054607414e-01 
3.145000000000e+01 5.492543883110e-01 
3.145000000000e+01 5.492543883110e-01 
3.145000000000e+01 5.492543883110e-01 
3.145000000000e+01 5.492543883110e-01 
3.145000000000e+01 5.492543883110e-01 
3.147500000000e+01 5.466580098318e-01 
3.147500000000e+01 5.466580098318e-01 
3.147500000000e+01 5.466580098318e-01 
3.147500000000e+01 5.466580098318e-01 
3.147500000000e+01 5.466580098318e-01 
3.150000000000e+01 5.441144101810e-01 
3.150000000000e+01 5.441144101810e-01 
3.150000000000e+01 5.441144101810e-01 
3.150000000000e+01 5.441144101810e-01 
3.150000000000e+01 5.441144101810e-01 
3.152500000000e+01 5.416217673588e-01 
3.152500000000e+01 5.416217673588e-01 
3.152500000000e+01 5.416217673588e-01 
3.152500000000e+01 5.416217673588e-01 
3.152500000000e+01 5.416217673588e-01 
3.155000000000e+01 5.391783467591e-01 
3.155000000000e+01 5.391783467591e-01 
3.155000000000e+01 5.391783467591e-01 
3.155000000000e+01 5.391783467591e-01 
3.155000000000e+01 5.391783467591e-01 
3.157500000000e+01 5.367824958643e-01 
3.157500000000e+01 5.367824958643e-01 
3.157500000000e+01 5.367824958643e-01 
3.157500000000e+01 5.367824958643e-01 
3.157500000000e+01 5.367824958643e-01 
3.160000000000e+01 5.344326393247e-01 
3.160000000000e+01 5.344326393247e-01 
3.160000000000e+01 5.344326393247e-01 
3.160000000000e+01 5.344326393247e-01 
3.160000000000e+01 5.344326393247e-01 
3.162500000000e+01 5.321272743928e-01 
3.162500000000e+01 5.321272743928e-01 
3.162500000000e+01 5.321272743928e-01 
3.162500000000e+01 5.321272743928e-01 
3.162500000000e+01 5.321272743928e-01 
3.165000000000e+01 5.298649666811e-01 
3.165000000000e+01 5.298649666811e-01 
3.165000000000e+01 5.298649666811e-01 
3.165000000000e+01 5.298649666811e-01 
3.165000000000e+01 5.298649666811e-01 
3.167500000000e+01 5.276443462180e-01 
3.167500000000e+01 5.276443462180e-01 
3.167500000000e+01 5.276443462180e-01 
3.167500000000e+01 5.276443462180e-01 
3.167500000000e+01 5.276443462180e-01 
3.170000000000e+01 5.254641037767e-01 
3.170000000000e+01 5.254641037767e-01 
3.170000000000e+01 5.254641037767e-01 
3.170000000000e+01 5.254641037767e-01 
3.170000000000e+01 5.254641037767e-01 
3.172500000000e+01 5.233229874560e-01 
3.172500000000e+01 5.233229874560e-01 
3.172500000000e+01 5.233229874560e-01 
3.172500000000e+01 5.233229874560e-01 
3.172500000000e+01 5.233229874560e-01 
3.175000000000e+01 5.212197994921e-01 
3.175000000000e+01 5.212197994921e-01 
3.175000000000e+01 5.212197994921e-01 
3.175000000000e+01 5.212197994921e-01 
3.175000000000e+01 5.212197994921e-01 
3.177500000000e+01 5.191533932842e-01 
3.177500000000e+01 5.191533932842e-01 
3.177500000000e+01 5.191533932842e-01 
3.177500000000e+01 5.191533932842e-01 
3.177500000000e+01 5.191533932842e-01 
3.180000000000e+01 5.171226706164e-01 
3.180000000000e+01 5.171226706164e-01 
3.180000000000e+01 5.171226706164e-01 
3.180000000000e+01 5.171226706164e-01 
3.180000000000e+01 5.171226706164e-01 
3.182500000000e+01 5.151265790614e-01 
3.182500000000e+01 5.151265790614e-01 
3.182500000000e+01 5.151265790614e-01 
3.182500000000e+01 5.151265790614e-01 
3.182500000000e+01 5.151265790614e-01 
3.185000000000e+01 5.131641095520e-01 
3.185000000000e+01 5.131641095520e-01 
3.185000000000e+01 5.131641095520e-01 
3.185000000000e+01 5.131641095520e-01 
3.185000000000e+01 5.131641095520e-01 
3.187500000000e+01 5.112342941078e-01 
3.187500000000e+01 5.112342941078e-01 
3.187500000000e+01 5.112342941078e-01 
3.187500000000e+01 5.112342941078e-01 
3.187500000000e+01 5.112342941078e-01 
3.190000000000e+01 5.093362037054e-01 
3.190000000000e+01 5.093362037054e-01 
3.190000000000e+01 5.093362037054e-01 
3.190000000000e+01 5.093362037054e-01 
3.190000000000e+01 5.093362037054e-01 
3.192500000000e+01 5.074689462822e-01 
3.192500000000e+01 5.074689462822e-01 
3.192500000000e+01 5.074689462822e-01 
3.192500000000e+01 5.074689462822e-01 
3.192500000000e+01 5.074689462822e-01 
3.195000000000e+01 5.056316648631e-01 
3.195000000000e+01 5.056316648631e-01 
3.195000000000e+01 5.056316648631e-01 
3.195000000000e+01 5.056316648631e-01 
3.195000000000e+01 5.056316648631e-01 
3.197500000000e+01 5.038235358020e-01 
3.197500000000e+01 5.038235358020e-01 
3.197500000000e+01 5.038235358020e-01 
3.197500000000e+01 5.038235358020e-01 
3.197500000000e+01 5.038235358020e-01 
3.200000000000e+01 5.013298104121e-01 
3.200000000000e+01 5.013324785136e-01 
3.200000000000e+01 5.013338112200e-01 
3.200000000000e+01 5.013311449107e-01 
3.200000000000e+01 5.013351430290e-01 
3.292811226898e+01 4.499263795853e-01 
3.292911261126e+01 4.498815219402e-01 
3.293011295355e+01 4.498366832648e-01 
3.293111329583e+01 4.497918635455e-01 
3.293211363811e+01 4.497470627688e-01 
3.385622453796e+01 4.165687302526e-01 
3.385822522253e+01 4.165071845173e-01 
3.386022590709e+01 4.164456801960e-01 
3.386222659166e+01 4.163842172405e-01 
3.386422727623e+01 4.163227956027e-01 
3.478433680694e+01 3.921574303927e-01 
3.478733783379e+01 3.920880430237e-01 
3.479033886064e+01 3.920187125419e-01 
3.479333988749e+01 3.919494388661e-01 
3.479634091434e+01 3.918802219154e-01 
3.571244907592e+01 3.732135428057e-01 
3.571645044505e+01 3.731403117212e-01 
3.572045181419e+01 3.730671479356e-01 
3.572445318332e+01 3.729940513412e-01 
3.572845455245e+01 3.729210218303e-01 
3.664056134490e+01 3.578946074850e-01 
3.664556305632e+01 3.578195405164e-01 
3.665056476773e+01 3.577445479175e-01 
3.665556647915e+01 3.576696295596e-01 
3.666056819057e+01 3.575947853145e-01 
 TITLE = "Profiles along polylines"
 VARIABLES = "DIST" "SATURATION1" 
 ZONE T="TIME=1.797693134862e+308"
1.640561344898e+00 1.000000000000e+00 
1.645563056316e+00 1.000000000000e+00 
1.650564767733e+00 1.000000000000e+00 
1.655566479150e+00 1.000000000000e+00 
1.660568190568e+00 1.000000000000e+00 
2.585875966735e+00 1.000000000000e+00 
2.590710954438e+00 1.000000000000e+00 
2.595545942142e+00 1.000000000000e+00 
2.600380929845e+00 1.000000000000e+00 
2.605215917549e+00 1.000000000000e+00 
3.531190588571e+00 1.000000000000e+00 
3.535858852560e+00 1.000000000000e+00 
3.540527116550e+00 1.000000000000e+00 
3.545195380540e+00 1.000000000000e+00 
3.549863644529e+00 1.000000000000e+00 
4.476505210408e+00 1.000000000000e+00 
4.481006750684e+00 1.000000000000e+00 
4.485508290959e+00 1.000000000000e+00 
4.490009831235e+00 1.000000000000e+00 
4.494511371511e+00 1.000000000000e+00 
5.421819832245e+00 1.000000000000e+00 
5.426154648807e+00 1.000000000000e+00 
5.430489465368e+00 1.000000000000e+00 
5.434824281930e+00 1.000000000000e+00 
5.439159098492e+00 1.000000000000e+00 
6.367134454081e+00 1.000000000000e+00 
6.371302546929e+00 1.000000000000e+00 
6.375470639777e+00 1.000000000000e+00 
6.379638732624e+00 1.000000000000e+00 
6.383806825472e+00 1.000000000000e+00 
7.312449075917e+00 1.000000000000e+00 
7.316450445051e+00 1.000000000000e+00 
7.320451814185e+00 1.000000000000e+00 
7.324453183319e+00 1.000000000000e+00 
7.328454552453e+00 1.000000000000e+00 
8.257763697753e+00 1.000000000000e+00 
8.261598343173e+00 1.000000000000e+00 
8.265432988593e+00 1.000000000000e+00 
8.269267634013e+00 1.000000000000e+00 
8.273102279433e+00 1.000000000000e+00 
9.203078319589e+00 1.000000000000e+00 
9.206746241295e+00 1.000000000000e+00 
9.210414163001e+00 1.000000000000e+00 
9.214082084707e+00 1.000000000000e+00 
9.217750006413e+00 1.000000000000e+00 
1.014839294142e+01 1.000000000000e+00 
1.015189413941e+01 1.000000000000e+00 
1.015539533741e+01 1.000000000000e+00 
1.015889653540e+01 1.000000000000e+00 
1.016239773339e+01 1.000000000000e+00 
1.109370756326e+01 1.000000000000e+00 
1.109704203753e+01 1.000000000000e+00 
1.110037651181e+01 1.000000000000e+00 
1.110371098609e+01 1.000000000000e+00 
1.110704546037e+01 1.000000000000e+00 
1.203902218509e+01 1.000000000000e+00 
1.204218993565e+01 1.000000000000e+00 
1.204535768622e+01 1.000000000000e+00 
1.204852543678e+01 1.000000000000e+00 
1.205169318735e+01 1.000000000000e+00 
1.298433680692e+01 1.000000000000e+00 
1.298733783377e+01 1.000000000000e+00 
1.299033886062e+01 1.000000000000e+00 
1.299333988747e+01 1.000000000000e+00 
1.299634091432e+01 1.000000000000e+00 
1.392965142876e+01 1.000000000000e+00 
1.393248573189e+01 1.000000000000e+00 
1.393532003503e+01 1.000000000000e+00 
1.393815433817e+01 1.000000000000e+00 
1.394098864130e+01 1.000000000000e+00 
1.487496605059e+01 1.000000000000e+00 
1.487763363001e+01 1.000000000000e+00 
1.488030120944e+01 1.000000000000e+00 
1.488296878886e+01 1.000000000000e+00 
1.488563636828e+01 1.000000000000e+00 
1.582028067242e+01 1.000000000000e+00 
1.582278152813e+01 1.000000000000e+00 
1.582528238384e+01 1.000000000000e+00 
1.582778323955e+01 1.000000000000e+00 
1.583028409526e+01 1.000000000000e+00 
1.676559529426e+01 1.000000000000e+00 
1.676792942626e+01 1.000000000000e+00 
1.677026355825e+01 1.000000000000e+00 
1.677259769025e+01 1.000000000000e+00 
1.677493182224e+01 1.000000000000e+00 
1.771090991610e+01 1.000000000000e+00 
1.771307732438e+01 1.000000000000e+00 
1.771524473266e+01 1.000000000000e+00 
1.771741214094e+01 1.000000000000e+00 
1.771957954922e+01 1.000000000000e+00 
1.865622453794e+01 1.000000000000e+00 
1.865822522251e+01 1.000000000000e+00 
1.866022590707e+01 1.000000000000e+00 
1.866222659164e+01 1.000000000000e+00 
1.866422727621e+01 1.000000000000e+00 
1.960153915978e+01 1.000000000000e+00 
1.960337312063e+01 1.000000000000e+00 
1.960520708148e+01 1.000000000000e+00 
1.960704104234e+01 1.000000000000e+00 
1.960887500319e+01 1.000000000000e+00 
2.054685378162e+01 1.000000000000e+00 
2.054852101875e+01 1.000000000000e+00 
2.055018825589e+01 1.000000000000e+00 
2.055185549303e+01 1.000000000000e+00 
2.055352273017e+01 1.000000000000e+00 
2.149216840345e+01 1.000000000000e+00 
2.149366891688e+01 1.000000000000e+00 
2.149516943030e+01 1.000000000000e+00 
2.149666994373e+01 1.000000000000e+00 
2.149817045715e+01 1.000000000000e+00 
2.243748302529e+01 1.000000000000e+00 
2.243881681500e+01 1.000000000000e+00 
2.244015060472e+01 1.000000000000e+00 
2.244148439443e+01 1.000000000000e+00 
2.244281818414e+01 1.000000000000e+00 
2.338279764713e+01 1.000000000000e+00 
2.338396471313e+01 1.000000000000e+00 
2.338513177913e+01 1.000000000000e+00 
2.338629884512e+01 1.000000000000e+00 
2.338746591112e+01 1.000000000000e+00 
2.432811226897e+01 1.000000000000e+00 
2.432911261125e+01 1.000000000000e+00 
2.433011295354e+01 1.000000000000e+00 
2.433111329582e+01 1.000000000000e+00 
2.433211363810e+01 1.000000000000e+00 
2.527342689081e+01 1.000000000000e+00 
2.527426050938e+01 1.000000000000e+00 
2.527509412795e+01 1.000000000000e+00 
2.527592774652e+01 1.000000000000e+00 
2.527676136509e+01 1.000000000000e+00 
2.621874151265e+01 1.000000000000e+00 
2.621940840750e+01 1.000000000000e+00 
2.622007530236e+01 1.000000000000e+00 
2.622074219721e+01 1.000000000000e+00 
2.622140909207e+01 1.000000000000e+00 
2.716405613448e+01 1.000000000000e+00 
2.716455630563e+01 1.000000000000e+00 
2.716505647677e+01 1.000000000000e+00 
2.716555664791e+01 1.000000000000e+00 
2.716605681905e+01 1.000000000000e+00 
2.810937075632e+01 1.000000000000e+00 
2.810970420375e+01 1.000000000000e+00 
2.811003765118e+01 1.000000000000e+00 
2.811037109861e+01 1.000000000000e+00 
2.811070454603e+01 1.000000000000e+00 
2.905468537816e+01 1.000000000000e+00 
2.905485210188e+01 1.000000000000e+00 
2.905501882559e+01 1.000000000000e+00 
2.905518554930e+01 1.000000000000e+00 
2.905535227302e+01 1.000000000000e+00 
3.000000000000e+01 1.000000000000e+00 
3.000000000000e+01 1.000000000000e+00 
3.000000000000e+01 1.000000000000e+00 
3.000000000000e+01 1.000000000000e+00 
3.000000000000e+01 1.000000000000e+00 
3.002500000000e+01 1.000000000000e+00 
3.002500000000e+01 1.000000000000e+00 
3.002500000000e+01 1.000000000000e+00 
3.002500000000e+01 1.000000000000e+00 
3.002500000000e+01 1.000000000000e+00 
3.005000000000e+01 1.000000000000e+00 
3.005000000000e+01 1.000000000000e+00 
3.005000000000e+01 1.000000000000e+00 
3.005000000000e+01 1.000000000000e+00 
3.005000000000e+01 1.000000000000e+00 
3.007500000000e+01 1.000000000000e+00 
3.007500000000e+01 1.000000000000e+00 
3.007500000000e+01 1.000000000000e+00 
3.007500000000e+01 1.000000000000e+00 
3.007500000000e+01 1.000000000000e+00 
3.010000000000e+01 1.000000000000e+00 
3.010000000000e+01 1.000000000000e+00 
3.010000000000e+01 1.000000000000e+00 
3.010000000000e+01 1.000000000000e+00 
3.010000000000e+01 1.000000000000e+00 
3.012500000000e+01 1.000000000000e+00 
3.012500000000e+01 1.000000000000e+00 
3.012500000000e+01 1.000000000000e+00 
3.012500000000e+01 1.000000000000e+00 
3.012500000000e+01 1.000000000000e+00 
3.015000000000e+01 1.000000000000e+00 
3.015000000000e+01 1.000000000000e+00 
3.015000000000e+01 1.000000000000e+00 