 TITLE = "Profiles along polylines"
 VARIABLES = "DIST" "SATURATION1" 
 ZONE T="TIME=0.000000000000e+00"
2.981667762575e+00 1.000000000000e+00 
2.991670810312e+00 1.000000000000e+00 
3.003347208382e+00 1.000000000000e+00 
3.023350303916e+00 1.000000000000e+00 
3.043353399451e+00 1.000000000000e+00 
3.882278837156e+00 1.000000000000e+00 
3.891948449968e+00 1.000000000000e+00 
3.903235634769e+00 1.000000000000e+00 
3.922571960452e+00 1.000000000000e+00 
3.941908286135e+00 1.000000000000e+00 
4.782889911736e+00 1.000000000000e+00 
4.792226089624e+00 1.000000000000e+00 
4.803124061156e+00 1.000000000000e+00 
4.821793616988e+00 1.000000000000e+00 
4.840463172820e+00 1.000000000000e+00 
5.683500986317e+00 1.000000000000e+00 
5.692503729280e+00 1.000000000000e+00 
5.703012487543e+00 1.000000000000e+00 
5.721015273524e+00 1.000000000000e+00 
5.739018059505e+00 1.000000000000e+00 
6.584112060898e+00 1.000000000000e+00 
6.592781368937e+00 1.000000000000e+00 
6.602900913931e+00 1.000000000000e+00 
6.620236930061e+00 1.000000000000e+00 
6.637572946190e+00 1.000000000000e+00 
7.484723135478e+00 1.000000000000e+00 
7.493059008592e+00 1.000000000000e+00 
7.502789340317e+00 1.000000000000e+00 
7.519458586596e+00 1.000000000000e+00 
7.536127832875e+00 1.000000000000e+00 
8.385334210059e+00 1.000000000000e+00 
8.393336648248e+00 1.000000000000e+00 
8.402677766704e+00 1.000000000000e+00 
8.418680243132e+00 1.000000000000e+00 
8.434682719559e+00 1.000000000000e+00 
9.285945284639e+00 1.000000000000e+00 
9.293614287904e+00 1.000000000000e+00 
9.302566193091e+00 1.000000000000e+00 
9.317901899667e+00 1.000000000000e+00 
9.333237606243e+00 1.000000000000e+00 
1.018655635922e+01 1.000000000000e+00 
1.019389192756e+01 1.000000000000e+00 
1.020245461948e+01 1.000000000000e+00 
1.021712355620e+01 1.000000000000e+00 
1.023179249293e+01 1.000000000000e+00 
1.108716743380e+01 1.000000000000e+00 
1.109416956721e+01 1.000000000000e+00 
1.110234304586e+01 1.000000000000e+00 
1.111634521274e+01 1.000000000000e+00 
1.113034737961e+01 1.000000000000e+00 
1.198777850837e+01 1.000000000000e+00 
1.199444720687e+01 1.000000000000e+00 
1.200223147225e+01 1.000000000000e+00 
1.201556686927e+01 1.000000000000e+00 
1.202890226629e+01 1.000000000000e+00 
1.288838958295e+01 1.000000000000e+00 
1.289472484652e+01 1.000000000000e+00 
1.290211989863e+01 1.000000000000e+00 
1.291478852580e+01 1.000000000000e+00 
1.292745715297e+01 1.000000000000e+00 
1.378900065753e+01 1.000000000000e+00 
1.379500248617e+01 1.000000000000e+00 
1.380200832502e+01 1.000000000000e+00 
1.381401018234e+01 1.000000000000e+00 
1.382601203966e+01 1.000000000000e+00 
1.468961173211e+01 1.000000000000e+00 
1.469528012583e+01 1.000000000000e+00 
1.470189675140e+01 1.000000000000e+00 
1.471323183887e+01 1.000000000000e+00 
1.472456692634e+01 1.000000000000e+00 
1.559022280669e+01 1.000000000000e+00 
1.559555776548e+01 1.000000000000e+00 
1.560178517778e+01 1.000000000000e+00 
1.561245349540e+01 1.000000000000e+00 
1.562312181302e+01 1.000000000000e+00 
1.649083388127e+01 1.000000000000e+00 
1.649583540513e+01 1.000000000000e+00 
1.650167360417e+01 1.000000000000e+00 
1.651167515194e+01 1.000000000000e+00 
1.652167669970e+01 1.000000000000e+00 
1.739144495585e+01 1.000000000000e+00 
1.739611304479e+01 1.000000000000e+00 
1.740156203056e+01 1.000000000000e+00 
1.741089680847e+01 1.000000000000e+00 
1.742023158639e+01 1.000000000000e+00 
1.829205603043e+01 1.000000000000e+00 
1.829639068445e+01 1.000000000000e+00 
1.830145045695e+01 1.000000000000e+00 
1.831011846501e+01 1.000000000000e+00 
1.831878647308e+01 1.000000000000e+00 
1.919266710501e+01 1.000000000000e+00 
1.919666832411e+01 1.000000000000e+00 
1.920133888333e+01 1.000000000000e+00 
1.920934012155e+01 1.000000000000e+00 
1.921734135976e+01 1.000000000000e+00 
2.009327817959e+01 1.000000000000e+00 
2.009694596376e+01 1.000000000000e+00 
2.010122730972e+01 1.000000000000e+00 
2.010856177809e+01 1.000000000000e+00 
2.011589624645e+01 1.000000000000e+00 
2.099388925418e+01 1.000000000000e+00 
2.099722360342e+01 1.000000000000e+00 
2.100111573611e+01 1.000000000000e+00 
2.100778343462e+01 1.000000000000e+00 
2.101445113314e+01 1.000000000000e+00 
2.189450032876e+01 1.000000000000e+00 
2.189750124308e+01 1.000000000000e+00 
2.190100416250e+01 1.000000000000e+00 
2.190700509116e+01 1.000000000000e+00 
2.191300601982e+01 1.000000000000e+00 
2.279511140334e+01 1.000000000000e+00 
2.279777888274e+01 1.000000000000e+00 
2.280089258889e+01 1.000000000000e+00 
2.280622674770e+01 1.000000000000e+00 
2.281156090651e+01 1.000000000000e+00 
2.369572247792e+01 1.000000000000e+00 
2.369805652240e+01 1.000000000000e+00 
2.370078101528e+01 1.000000000000e+00 
2.370544840424e+01 1.000000000000e+00 
2.371011579319e+01 1.000000000000e+00 
2.459633355251e+01 1.000000000000e+00 
2.459833416205e+01 1.000000000000e+00 
2.460066944167e+01 1.000000000000e+00 
2.460467006077e+01 1.000000000000e+00 
2.460867067988e+01 1.000000000000e+00 
2.549694462709e+01 1.000000000000e+00 
2.549861180171e+01 1.000000000000e+00 
2.550055786806e+01 1.000000000000e+00 
2.550389171731e+01 1.000000000000e+00 
2.550722556657e+01 1.000000000000e+00 
2.639755570167e+01 1.000000000000e+00 
2.639888944137e+01 1.000000000000e+00 
2.640044629444e+01 1.000000000000e+00 
2.640311337385e+01 1.000000000000e+00 
2.640578045325e+01 1.000000000000e+00 
2.729816677625e+01 1.000000000000e+00 
2.729916708103e+01 1.000000000000e+00 
2.730033472083e+01 1.000000000000e+00 
2.730233503039e+01 1.000000000000e+00 
2.730433533994e+01 1.000000000000e+00 
2.819877785084e+01 1.000000000000e+00 
2.819944472068e+01 1.000000000000e+00 
2.820022314722e+01 1.000000000000e+00 
2.820155668692e+01 1.000000000000e+00 
2.820289022663e+01 1.000000000000e+00 
2.909938892542e+01 1.000000000000e+00 
2.909972236034e+01 1.000000000000e+00 
2.910011157361e+01 1.000000000000e+00 
2.910077834346e+01 1.000000000000e+00 
2.910144511331e+01 1.000000000000e+00 
3.000000000000e+01 1.000000000000e+00 
3.000000000000e+01 1.000000000000e+00 
3.000000000000e+01 1.000000000000e+00 
3.000000000000e+01 1.000000000000e+00 
3.000000000000e+01 1.000000000000e+00 
3.002500000000e+01 9.876207709446e-01 
3.002500000000e+01 9.876207709446e-01 
3.002500000000e+01 9.876207709446e-01 
3.002500000000e+01 9.876207709446e-01 
3.002500000000e+01 9.876207709446e-01 
3.005000000000e+01 9.697756439369e-01 
3.005000000000e+01 9.697756439369e-01 
3.005000000000e+01 9.697756439369e-01 
3.005000000000e+01 9.697756439369e-01 
3.005000000000e+01 9.697756439369e-01 
3.007500000000e+01 9.507134089444e-01 
3.007500000000e+01 9.507134089444e-01 
3.007500000000e+01 9.507134089444e-01 
3.007500000000e+01 9.507134089444e-01 
3.007500000000e+01 9.507134089444e-01 
3.010000000000e+01 9.315621650298e-01 
3.010000000000e+01 9.315621650298e-01 
3.010000000000e+01 9.315621650298e-01 
3.010000000000e+01 9.315621650298e-01 
3.010000000000e+01 9.315621650298e-01 
3.012500000000e+01 9.128758324042e-01 
3.012500000000e+01 9.128758324042e-01 
3.012500000000e+01 9.128758324042e-01 
3.012500000000e+01 9.128758324042e-01 
3.012500000000e+01 9.128758324042e-01 
3.015000000000e+01 8.949248043380e-01 
3.015000000000e+01 8.949248043380e-01 
3.015000000000e+01 8.949248043380e-01 
3.015000000000e+01 8.949248043380e-01 
3.015000000000e+01 8.949248043380e-01 
3.017500000000e+01 8.778290027968e-01 
3.017500000000e+01 8.778290027968e-01 
3.017500000000e+01 8.778290027968e-01 
3.017500000000e+01 8.778290027968e-01 
3.017500000000e+01 8.778290027968e-01 
3.020000000000e+01 8.616255702900e-01 
3.020000000000e+01 8.616255702900e-01 
3.020000000000e+01 8.616255702900e-01 
3.020000000000e+01 8.616255702900e-01 
3.020000000000e+01 8.616255702900e-01 
3.022500000000e+01 8.463059583920e-01 
3.022500000000e+01 8.463059583920e-01 
3.022500000000e+01 8.463059583920e-01 
3.022500000000e+01 8.463059583920e-01 
3.022500000000e+01 8.463059583920e-01 
3.025000000000e+01 8.318370344398e-01 
3.025000000000e+01 8.318370344398e-01 
3.025000000000e+01 8.318370344398e-01 
3.025000000000e+01 8.318370344398e-01 
3.025000000000e+01 8.318370344398e-01 
3.027500000000e+01 8.181733156316e-01 
3.027500000000e+01 8.181733156316e-01 
3.027500000000e+01 8.181733156316e-01 
3.027500000000e+01 8.181733156316e-01 
3.027500000000e+01 8.181733156316e-01 
3.030000000000e+01 8.052640970350e-01 
3.030000000000e+01 8.052640970350e-01 
3.030000000000e+01 8.052640970350e-01 
3.030000000000e+01 8.052640970350e-01 
3.030000000000e+01 8.052640970350e-01 
3.032500000000e+01 7.930575753856e-01 
3.032500000000e+01 7.930575753856e-01 
3.032500000000e+01 7.930575753856e-01 
3.032500000000e+01 7.930575753856e-01 
3.032500000000e+01 7.930575753856e-01 
3.035000000000e+01 7.815031815402e-01 
3.035000000000e+01 7.815031815402e-01 
3.035000000000e+01 7.815031815402e-01 
3.035000000000e+01 7.815031815402e-01 
3.035000000000e+01 7.815031815402e-01 
3.037500000000e+01 7.705528376764e-01 
3.037500000000e+01 7.705528376764e-01 
3.037500000000e+01 7.705528376764e-01 
3.037500000000e+01 7.705528376764e-01 
3.037500000000e+01 7.705528376764e-01 
3.040000000000e+01 7.601615689674e-01 
3.040000000000e+01 7.601615689674e-01 
3.040000000000e+01 7.601615689674e-01 
3.040000000000e+01 7.601615689674e-01 
3.040000000000e+01 7.601615689674e-01 
3.042500000000e+01 7.502877306002e-01 
3.042500000000e+01 7.502877306002e-01 
3.042500000000e+01 7.502877306002e-01 
3.042500000000e+01 7.502877306002e-01 
3.042500000000e+01 7.502877306002e-01 
3.045000000000e+01 7.408930096824e-01 
3.045000000000e+01 7.408930096824e-01 
3.045000000000e+01 7.408930096824e-01 
3.045000000000e+01 7.408930096824e-01 
3.045000000000e+01 7.408930096824e-01 
3.047500000000e+01 7.319422999608e-01 
3.047500000000e+01 7.319422999608e-01 
3.047500000000e+01 7.319422999608e-01 
3.047500000000e+01 7.319422999608e-01 
3.047500000000e+01 7.319422999608e-01 
3.050000000000e+01 7.234035093991e-01 
3.050000000000e+01 7.234035093991e-01 
3.050000000000e+01 7.234035093991e-01 
3.050000000000e+01 7.234035093991e-01 
3.050000000000e+01 7.234035093991e-01 
3.052500000000e+01 7.152473371957e-01 
3.052500000000e+01 7.152473371957e-01 
3.052500000000e+01 7.152473371957e-01 
3.052500000000e+01 7.152473371957e-01 
3.052500000000e+01 7.152473371957e-01 
3.055000000000e+01 7.074470422112e-01 
3.055000000000e+01 7.074470422112e-01 
3.055000000000e+01 7.074470422112e-01 
3.055000000000e+01 7.074470422112e-01 
3.055000000000e+01 7.074470422112e-01 
3.057500000000e+01 6.999782156504e-01 
3.057500000000e+01 6.999782156504e-01 
3.057500000000e+01 6.999782156504e-01 
3.057500000000e+01 6.999782156504e-01 
3.057500000000e+01 6.999782156504e-01 
3.060000000000e+01 6.928185651596e-01 
3.060000000000e+01 6.928185651596e-01 
3.060000000000e+01 6.928185651596e-01 
3.060000000000e+01 6.928185651596e-01 
3.060000000000e+01 6.928185651596e-01 
3.062500000000e+01 6.859477139679e-01 
3.062500000000e+01 6.859477139679e-01 
3.062500000000e+01 6.859477139679e-01 
3.062500000000e+01 6.859477139679e-01 
3.062500000000e+01 6.859477139679e-01 
3.065000000000e+01 6.793470165436e-01 
3.065000000000e+01 6.793470165436e-01 
3.065000000000e+01 6.793470165436e-01 
3.065000000000e+01 6.793470165436e-01 
3.065000000000e+01 6.793470165436e-01 
3.067500000000e+01 6.729993909360e-01 
3.067500000000e+01 6.729993909360e-01 
3.067500000000e+01 6.729993909360e-01 
3.067500000000e+01 6.729993909360e-01 
3.067500000000e+01 6.729993909360e-01 
3.070000000000e+01 6.668891672206e-01 
3.070000000000e+01 6.668891672206e-01 
3.070000000000e+01 6.668891672206e-01 
3.070000000000e+01 6.668891672206e-01 
3.070000000000e+01 6.668891672206e-01 
3.072500000000e+01 6.610019510587e-01 
3.072500000000e+01 6.610019510587e-01 
3.072500000000e+01 6.610019510587e-01 
3.072500000000e+01 6.610019510587e-01 
3.072500000000e+01 6.610019510587e-01 
3.075000000000e+01 6.553245011865e-01 
3.075000000000e+01 6.553245011865e-01 
3.075000000000e+01 6.553245011865e-01 
3.075000000000e+01 6.553245011865e-01 
3.075000000000e+01 6.553245011865e-01 
3.077500000000e+01 6.498446195878e-01 
3.077500000000e+01 6.498446195878e-01 
3.077500000000e+01 6.498446195878e-01 
3.077500000000e+01 6.498446195878e-01 
3.077500000000e+01 6.498446195878e-01 
3.080000000000e+01 6.445510531188e-01 
3.080000000000e+01 6.445510531188e-01 
3.080000000000e+01 6.445510531188e-01 
3.080000000000e+01 6.445510531188e-01 
3.080000000000e+01 6.445510531188e-01 
3.082500000000e+01 6.394334054150e-01 
3.082500000000e+01 6.394334054150e-01 
3.082500000000e+01 6.394334054150e-01 
3.082500000000e+01 6.394334054150e-01 
3.082500000000e+01 6.394334054150e-01 
3.085000000000e+01 6.344820579917e-01 
3.085000000000e+01 6.344820579917e-01 
3.085000000000e+01 6.344820579917e-01 
3.085000000000e+01 6.344820579917e-01 
3.085000000000e+01 6.344820579917e-01 
3.087500000000e+01 6.296880995462e-01 
3.087500000000e+01 6.296880995462e-01 
3.087500000000e+01 6.296880995462e-01 
3.087500000000e+01 6.296880995462e-01 
3.087500000000e+01 6.296880995462e-01 
3.090000000000e+01 6.250432625624e-01 
3.090000000000e+01 6.250432625624e-01 
3.090000000000e+01 6.250432625624e-01 
3.090000000000e+01 6.250432625624e-01 
3.090000000000e+01 6.250432625624e-01 
3.092500000000e+01 6.205398664126e-01 
3.092500000000e+01 6.205398664126e-01 
3.092500000000e+01 6.205398664126e-01 
3.092500000000e+01 6.205398664126e-01 
3.092500000000e+01 6.205398664126e-01 
3.095000000000e+01 6.161707662369e-01 
3.095000000000e+01 6.161707662369e-01 
3.095000000000e+01 6.161707662369e-01 
3.095000000000e+01 6.161707662369e-01 
3.095000000000e+01 6.161707662369e-01 
3.097500000000e+01 6.119293069613e-01 
3.097500000000e+01 6.119293069613e-01 
3.097500000000e+01 6.119293069613e-01 
3.097500000000e+01 6.119293069613e-01 
3.097500000000e+01 6.119293069613e-01 
3.100000000000e+01 6.078092818871e-01 
3.100000000000e+01 6.078092818871e-01 
3.100000000000e+01 6.078092818871e-01 
3.100000000000e+01 6.078092818871e-01 
3.100000000000e+01 6.078092818871e-01 
3.102500000000e+01 6.038048953494e-01 
3.102500000000e+01 6.038048953494e-01 
3.102500000000e+01 6.038048953494e-01 
3.102500000000e+01 6.038048953494e-01 
3.102500000000e+01 6.038048953494e-01 
3.105000000000e+01 5.999107290013e-01 
3.105000000000e+01 5.999107290013e-01 
3.105000000000e+01 5.999107290013e-01 
3.105000000000e+01 5.999107290013e-01 
3.105000000000e+01 5.999107290013e-01 
3.107500000000e+01 5.961217113309e-01 
3.107500000000e+01 5.961217113309e-01 
3.107500000000e+01 5.961217113309e-01 
3.107500000000e+01 5.961217113309e-01 
3.107500000000e+01 5.961217113309e-01 
3.110000000000e+01 5.924330900627e-01 
3.110000000000e+01 5.924330900627e-01 
3.110000000000e+01 5.924330900627e-01 
3.110000000000e+01 5.924330900627e-01 
3.110000000000e+01 5.924330900627e-01 
3.112500000000e+01 5.888404071392e-01 
3.112500000000e+01 5.888404071392e-01 
3.112500000000e+01 5.888404071392e-01 
3.112500000000e+01 5.888404071392e-01 
3.112500000000e+01 5.888404071392e-01 
3.115000000000e+01 5.853394760078e-01 
3.115000000000e+01 5.853394760078e-01 
3.115000000000e+01 5.853394760078e-01 
3.115000000000e+01 5.853394760078e-01 
3.115000000000e+01 5.853394760078e-01 
3.117500000000e+01 5.819263609758e-01 
3.117500000000e+01 5.819263609758e-01 
3.117500000000e+01 5.819263609758e-01 
3.117500000000e+01 5.819263609758e-01 
3.117500000000e+01 5.819263609758e-01 
3.120000000000e+01 5.785973584173e-01 
3.120000000000e+01 5.785973584173e-01 
3.120000000000e+01 5.785973584173e-01 
3.120000000000e+01 5.785973584173e-01 
3.120000000000e+01 5.785973584173e-01 
3.122500000000e+01 5.753489796460e-01 
3.122500000000e+01 5.753489796460e-01 
3.122500000000e+01 5.753489796460e-01 
3.122500000000e+01 5.753489796460e-01 
3.122500000000e+01 5.753489796460e-01 
3.125000000000e+01 5.721779352840e-01 
3.125000000000e+01 5.721779352840e-01 
3.125000000000e+01 5.721779352840e-01 
3.125000000000e+01 5.721779352840e-01 
3.125000000000e+01 5.721779352840e-01 
3.127500000000e+01 5.690811209785e-01 
3.127500000000e+01 5.690811209785e-01 
3.127500000000e+01 5.690811209785e-01 
3.127500000000e+01 5.690811209785e-01 
3.127500000000e+01 5.690811209785e-01 
3.130000000000e+01 5.660556043336e-01 
3.130000000000e+01 5.660556043336e-01 
3.130000000000e+01 5.660556043336e-01 
3.130000000000e+01 5.660556043336e-01 
3.130000000000e+01 5.660556043336e-01 
3.132500000000e+01 5.630986129391e-01 
3.132500000000e+01 5.630986129391e-01 
3.132500000000e+01 5.630986129391e-01 
3.132500000000e+01 5.630986129391e-01 
3.132500000000e+01 5.630986129391e-01 
3.135000000000e+01 5.602075233904e-01 
3.135000000000e+01 5.602075233904e-01 
3.135000000000e+01 5.602075233904e-01 
3.135000000000e+01 5.602075233904e-01 
3.135000000000e+01 5.602075233904e-01 
3.137500000000e+01 5.573798512060e-01 
3.137500000000e+01 5.573798512060e-01 
3.137500000000e+01 5.573798512060e-01 
3.137500000000e+01 5.573798512060e-01 
3.137500000000e+01 5.573798512060e-01 
3.140000000000e+01 5.546132415581e-01 
3.140000000000e+01 5.546132415581e-01 
3.140000000000e+01 5.546132415581e-01 
3.140000000000e+01 5.546132415581e-01 
3.140000000000e+01 5.546132415581e-01 
3.142500000000e+01 5.519054607414e-01 
3.142500000000e+01 5.519054607414e-01 
3.142500000000e+01 5.519054607414e-01 
3.142500000000e+01 5.519054607414e-01 
3.142500000000e+01 5.519054607414e-01 
3.145000000000e+01 5.492543883110e-01 
3.145000000000e+01 5.492543883110e-01 
3.145000000000e+01 5.492543883110e-01 
3.145000000000e+01 5.492543883110e-01 
3.145000000000e+01 5.492543883110e-01 
3.147500000000e+01 5.466580098318e-01 
3.147500000000e+01 5.466580098318e-01 
3.147500000000e+01 5.466580098318e-01 
3.147500000000e+01 5.466580098318e-01 
3.147500000000e+01 5.466580098318e-01 
3.150000000000e+01 5.441144101810e-01 
3.150000000000e+01 5.441144101810e-01 
3.150000000000e+01 5.441144101810e-01 
3.150000000000e+01 5.441144101810e-01 
3.150000000000e+01 5.441144101810e-01 
3.152500000000e+01 5.416217673588e-01 
3.152500000000e+01 5.416217673588e-01 
3.152500000000e+01 5.416217673588e-01 
3.152500000000e+01 5.416217673588e-01 
3.152500000000e+01 5.416217673588e-01 
3.155000000000e+01 5.391783467591e-01 
3.155000000000e+01 5.391783467591e-01 
3.155000000000e+01 5.391783467591e-01 
3.155000000000e+01 5.391783467591e-01 
3.155000000000e+01 5.391783467591e-01 
3.157500000000e+01 5.367824958643e-01 
3.157500000000e+01 5.367824958643e-01 
3.157500000000e+01 5.367824958643e-01 
3.157500000000e+01 5.367824958643e-01 
3.157500000000e+01 5.367824958643e-01 
3.160000000000e+01 5.344326393247e-01 
3.160000000000e+01 5.344326393247e-01 
3.160000000000e+01 5.344326393247e-01 
3.160000000000e+01 5.344326393247e-01 
3.160000000000e+01 5.344326393247e-01 
3.162500000000e+01 5.321272743928e-01 
3.162500000000e+01 5.321272743928e-01 
3.162500000000e+01 5.321272743928e-01 
3.162500000000e+01 5.321272743928e-01 
3.162500000000e+01 5.321272743928e-01 
3.165000000000e+01 5.298649666811e-01 
3.165000000000e+01 5.298649666811e-01 
3.165000000000e+01 5.298649666811e-01 
3.165000000000e+01 5.298649666811e-01 
3.165000000000e+01 5.298649666811e-01 
3.167500000000e+01 5.276443462180e-01 
3.167500000000e+01 5.276443462180e-01 
3.167500000000e+01 5.276443462180e-01 
3.167500000000e+01 5.276443462180e-01 
3.167500000000e+01 5.276443462180e-01 
3.170000000000e+01 5.254641037767e-01 
3.170000000000e+01 5.254641037767e-01 
3.170000000000e+01 5.254641037767e-01 
3.170000000000e+01 5.254641037767e-01 
3.170000000000e+01 5.254641037767e-01 
3.172500000000e+01 5.233229874560e-01 
3.172500000000e+01 5.233229874560e-01 
3.172500000000e+01 5.233229874560e-01 
3.172500000000e+01 5.233229874560e-01 
3.172500000000e+01 5.233229874560e-01 
3.175000000000e+01 5.212197994921e-01 
3.175000000000e+01 5.212197994921e-01 
3.175000000000e+01 5.212197994921e-01 
3.175000000000e+01 5.212197994921e-01 
3.175000000000e+01 5.212197994921e-01 
3.177500000000e+01 5.191533932842e-01 
3.177500000000e+01 5.191533932842e-01 
3.177500000000e+01 5.191533932842e-01 
3.177500000000e+01 5.191533932842e-01 
3.177500000000e+01 5.191533932842e-01 
3.180000000000e+01 5.171226706164e-01 
3.180000000000e+01 5.171226706164e-01 
3.180000000000e+01 5.171226706164e-01 
3.180000000000e+01 5.171226706164e-01 
3.180000000000e+01 5.171226706164e-01 
3.182500000000e+01 5.151265790614e-01 
3.182500000000e+01 5.151265790614e-01 
3.182500000000e+01 5.151265790614e-01 
3.182500000000e+01 5.151265790614e-01 
3.182500000000e+01 5.151265790614e-01 
3.185000000000e+01 5.131641095520e-01 
3.185000000000e+01 5.131641095520e-01 
3.185000000000e+01 5.131641095520e-01 
3.185000000000e+01 5.131641095520e-01 
3.185000000000e+01 5.131641095520e-01 
3.187500000000e+01 5.112342941078e-01 
3.187500000000e+01 5.112342941078e-01 
3.187500000000e+01 5.112342941078e-01 
3.187500000000e+01 5.112342941078e-01 
3.187500000000e+01 5.112342941078e-01 
3.190000000000e+01 5.093362037054e-01 
3.190000000000e+01 5.093362037054e-01 
3.190000000000e+01 5.093362037054e-01 
3.190000000000e+01 5.093362037054e-01 
3.190000000000e+01 5.093362037054e-01 
3.192500000000e+01 5.074689462822e-01 
3.192500000000e+01 5.074689462822e-01 
3.192500000000e+01 5.074689462822e-01 
3.192500000000e+01 5.074689462822e-01 
3.192500000000e+01 5.074689462822e-01 
3.195000000000e+01 5.056316648631e-01 
3.195000000000e+01 5.056316648631e-01 
3.195000000000e+01 5.056316648631e-01 
3.195000000000e+01 5.056316648631e-01 
3.195000000000e+01 5.056316648631e-01 
3.197500000000e+01 5.038235358020e-01 
3.197500000000e+01 5.038235358020e-01 
3.197500000000e+01 5.038235358020e-01 
3.197500000000e+01 5.038235358020e-01 
3.197500000000e+01 5.038235358020e-01 
3.200000000000e+01 5.009291540457e-01 
3.200000000000e+01 5.009415665894e-01 
3.200000000000e+01 5.009451806853e-01 
3.200000000000e+01 5.009353660566e-01 
3.200000000000e+01 5.009482739231e-01 
3.319633355252e+01 4.385376257636e-01 
3.319833416206e+01 4.384572082591e-01 
3.320066944168e+01 4.383634138345e-01 
3.320467006078e+01 4.382029356024e-01 
3.320867067989e+01 4.380427124062e-01 
3.439266710503e+01 4.014115254910e-01 
3.439666832412e+01 4.013076654346e-01 
3.440133888335e+01 4.011865793654e-01 
3.440934012157e+01 4.009795413449e-01 
3.441734135978e+01 4.007730015465e-01 
3.558900065755e+01 3.753625372812e-01 
3.559500248619e+01 3.752493892788e-01 
3.560200832503e+01 3.751175047678e-01 
3.561401018235e+01 3.748920833293e-01 
3.562601203967e+01 3.746673047164e-01 
3.678533421006e+01 3.556905644041e-01 
3.679333664825e+01 3.555738235209e-01 
3.680267776671e+01 3.554377712015e-01 
3.681868024313e+01 3.552052795464e-01 
3.683468271956e+01 3.549735178266e-01 
3.798166776258e+01 3.400790163426e-01 
3.799167081031e+01 3.399612675191e-01 
3.800334720838e+01 3.398240547368e-01 
3.802335030392e+01 3.395896180117e-01 
3.804335339945e+01 3.393559647904e-01 
 TITLE = "Profiles along polylines"
 VARIABLES = "DIST" "SATURATION1" 
 ZONE T="TIME=1.797693134862e+308"
2.981667762575e+00 1.000000000000e+00 
2.991670810312e+00 1.000000000000e+00 
3.003347208382e+00 1.000000000000e+00 
3.023350303916e+00 1.000000000000e+00 
3.043353399451e+00 1.000000000000e+00 
3.882278837156e+00 1.000000000000e+00 
3.891948449968e+00 1.000000000000e+00 
3.903235634769e+00 1.000000000000e+00 
3.922571960452e+00 1.000000000000e+00 
3.941908286135e+00 1.000000000000e+00 
4.782889911736e+00 1.000000000000e+00 
4.792226089624e+00 1.000000000000e+00 
4.803124061156e+00 1.000000000000e+00 
4.821793616988e+00 1.000000000000e+00 
4.840463172820e+00 1.000000000000e+00 
5.683500986317e+00 1.000000000000e+00 
5.692503729280e+00 1.000000000000e+00 
5.703012487543e+00 1.000000000000e+00 
5.721015273524e+00 1.000000000000e+00 
5.739018059505e+00 1.000000000000e+00 
6.584112060898e+00 1.000000000000e+00 
6.592781368937e+00 1.000000000000e+00 
6.602900913931e+00 1.000000000000e+00 
6.620236930061e+00 1.000000000000e+00 
6.637572946190e+00 1.000000000000e+00 
7.484723135478e+00 1.000000000000e+00 
7.493059008592e+00 1.000000000000e+00 
7.502789340317e+00 1.000000000000e+00 
7.519458586596e+00 1.000000000000e+00 
7.536127832875e+00 1.000000000000e+00 
8.385334210059e+00 1.000000000000e+00 
8.393336648248e+00 1.000000000000e+00 
8.402677766704e+00 1.000000000000e+00 
8.418680243132e+00 1.000000000000e+00 
8.434682719559e+00 1.000000000000e+00 
9.285945284639e+00 1.000000000000e+00 
9.293614287904e+00 1.000000000000e+00 
9.302566193091e+00 1.000000000000e+00 
9.317901899667e+00 1.000000000000e+00 
9.333237606243e+00 1.000000000000e+00 
1.018655635922e+01 1.000000000000e+00 
1.019389192756e+01 1.000000000000e+00 
1.020245461948e+01 1.000000000000e+00 
1.021712355620e+01 1.000000000000e+00 
1.023179249293e+01 1.000000000000e+00 
1.108716743380e+01 1.000000000000e+00 
1.109416956721e+01 1.000000000000e+00 
1.110234304586e+01 1.000000000000e+00 
1.111634521274e+01 1.000000000000e+00 
1.113034737961e+01 1.000000000000e+00 
1.198777850837e+01 1.000000000000e+00 
1.199444720687e+01 1.000000000000e+00 
1.200223147225e+01 1.000000000000e+00 
1.201556686927e+01 1.000000000000e+00 
1.202890226629e+01 1.000000000000e+00 
1.288838958295e+01 1.000000000000e+00 
1.289472484652e+01 1.000000000000e+00 
1.290211989863e+01 1.000000000000e+00 
1.291478852580e+01 1.000000000000e+00 
1.292745715297e+01 1.000000000000e+00 
1.378900065753e+01 1.000000000000e+00 
1.379500248617e+01 1.000000000000e+00 
1.380200832502e+01 1.000000000000e+00 
1.381401018234e+01 1.000000000000e+00 
1.382601203966e+01 1.000000000000e+00 
1.468961173211e+01 1.000000000000e+00 
1.469528012583e+01 1.000000000000e+00 
1.470189675140e+01 1.000000000000e+00 
1.471323183887e+01 1.000000000000e+00 
1.472456692634e+01 1.000000000000e+00 
1.559022280669e+01 1.000000000000e+00 
1.559555776548e+01 1.000000000000e+00 
1.560178517778e+01 1.000000000000e+00 
1.561245349540e+01 1.000000000000e+00 
1.562312181302e+01 1.000000000000e+00 
1.649083388127e+01 1.000000000000e+00 
1.649583540513e+01 1.000000000000e+00 
1.650167360417e+01 1.000000000000e+00 
1.651167515194e+01 1.000000000000e+00 
1.652167669970e+01 1.000000000000e+00 
1.739144495585e+01 1.000000000000e+00 
1.739611304479e+01 1.000000000000e+00 
1.740156203056e+01 1.000000000000e+00 
1.741089680847e+01 1.000000000000e+00 
1.742023158639e+01 1.000000000000e+00 
1.829205603043e+01 1.000000000000e+00 
1.829639068445e+01 1.000000000000e+00 
1.830145045695e+01 1.000000000000e+00 
1.831011846501e+01 1.000000000000e+00 
1.831878647308e+01 1.000000000000e+00 
1.919266710501e+01 1.000000000000e+00 
1.919666832411e+01 1.000000000000e+00 
1.920133888333e+01 1.000000000000e+00 
1.920934012155e+01 1.000000000000e+00 
1.921734135976e+01 1.000000000000e+00 
2.009327817959e+01 1.000000000000e+00 
2.009694596376e+01 1.000000000000e+00 
2.010122730972e+01 1.000000000000e+00 
2.010856177809e+01 1.000000000000e+00 
2.011589624645e+01 1.000000000000e+00 
2.099388925418e+01 1.000000000000e+00 
2.099722360342e+01 1.000000000000e+00 
2.100111573611e+01 1.000000000000e+00 
2.100778343462e+01 1.000000000000e+00 
2.101445113314e+01 1.000000000000e+00 
2.189450032876e+01 1.000000000000e+00 
2.189750124308e+01 1.000000000000e+00 
2.190100416250e+01 1.000000000000e+00 
2.190700509116e+01 1.000000000000e+00 
2.191300601982e+01 1.000000000000e+00 
2.279511140334e+01 1.000000000000e+00 
2.279777888274e+01 1.000000000000e+00 
2.280089258889e+01 1.000000000000e+00 
2.280622674770e+01 1.000000000000e+00 
2.281156090651e+01 1.000000000000e+00 
2.369572247792e+01 1.000000000000e+00 
2.369805652240e+01 1.000000000000e+00 
2.370078101528e+01 1.000000000000e+00 
2.370544840424e+01 1.000000000000e+00 
2.371011579319e+01 1.000000000000e+00 
2.459633355251e+01 1.000000000000e+00 
2.459833416205e+01 1.000000000000e+00 
2.460066944167e+01 1.000000000000e+00 
2.460467006077e+01 1.000000000000e+00 
2.460867067988e+01 1.000000000000e+00 
2.549694462709e+01 1.000000000000e+00 
2.549861180171e+01 1.000000000000e+00 
2.550055786806e+01 1.000000000000e+00 
2.550389171731e+01 1.000000000000e+00 
2.550722556657e+01 1.000000000000e+00 
2.639755570167e+01 1.000000000000e+00 
2.639888944137e+01 1.000000000000e+00 
2.640044629444e+01 1.000000000000e+00 
2.640311337385e+01 1.000000000000e+00 
2.640578045325e+01 1.000000000000e+00 
2.729816677625e+01 1.000000000000e+00 
2.729916708103e+01 1.000000000000e+00 
2.730033472083e+01 1.000000000000e+00 
2.730233503039e+01 1.000000000000e+00 
2.730433533994e+01 1.000000000000e+00 
2.819877785084e+01 1.000000000000e+00 
2.819944472068e+01 1.000000000000e+00 
2.820022314722e+01 1.000000000000e+00 
2.820155668692e+01 1.000000000000e+00 
2.820289022663e+01 1.000000000000e+00 
2.909938892542e+01 1.000000000000e+00 
2.909972236034e+01 1.000000000000e+00 
2.910011157361e+01 1.000000000000e+00 
2.910077834346e+01 1.000000000000e+00 
2.910144511331e+01 1.000000000000e+00 
3.000000000000e+01 1.000000000000e+00 
3.000000000000e+01 1.000000000000e+00 
3.000000000000e+01 1.000000000000e+00 
3.000000000000e+01 1.000000000000e+00 
3.000000000000e+01 1.000000000000e+00 
3.002500000000e+01 1.000000000000e+00 
3.002500000000e+01 1.000000000000e+00 
3.002500000000e+01 1.000000000000e+00 
3.002500000000e+01 1.000000000000e+00 
3.002500000000e+01 1.000000000000e+00 
3.005000000000e+01 1.000000000000e+00 
3.005000000000e+01 1.000000000000e+00 
3.005000000000e+01 1.000000000000e+00 
3.005000000000e+01 1.000000000000e+00 
3.005000000000e+01 1.000000000000e+00 
3.007500000000e+01 1.000000000000e+00 
3.007500000000e+01 1.000000000000e+00 
3.007500000000e+01 1.000000000000e+00 
3.007500000000e+01 1.000000000000e+00 
3.007500000000e+01 1.000000000000e+00 
3.010000000000e+01 1.000000000000e+00 
3.010000000000e+01 1.000000000000e+00 
3.010000000000e+01 1.000000000000e+00 
3.010000000000e+01 1.000000000000e+00 
3.010000000000e+01 1.000000000000e+00 
3.012500000000e+01 1.000000000000e+00 
3.012500000000e+01 1.000000000000e+00 
3.012500000000e+01 1.000000000000e+00 
3.012500000000e+01 1.000000000000e+00 
3.012500000000e+01 1.000000000000e+00 
3.015000000000e+01 1.000000000000e+00 
3.015000000000e+01 1.000000000000e+00 
3.015000000000e+01 1.000000000000e+00 