 TITLE = "Profiles along polylines"
 VARIABLES = "DIST" "SATURATION1" 
 ZONE T="TIME=0.000000000000e+00"
1.740595573246e+00 1.000000000000e+00 
1.745597284663e+00 1.000000000000e+00 
1.750598996081e+00 1.000000000000e+00 
1.755600707498e+00 1.000000000000e+00 
1.760602418916e+00 1.000000000000e+00 
2.682575720804e+00 1.000000000000e+00 
2.687410708508e+00 1.000000000000e+00 
2.692245696211e+00 1.000000000000e+00 
2.697080683915e+00 1.000000000000e+00 
2.701915671618e+00 1.000000000000e+00 
3.624555868362e+00 1.000000000000e+00 
3.629224132352e+00 1.000000000000e+00 
3.633892396341e+00 1.000000000000e+00 
3.638560660331e+00 1.000000000000e+00 
3.643228924320e+00 1.000000000000e+00 
4.566536015921e+00 1.000000000000e+00 
4.571037556197e+00 1.000000000000e+00 
4.575539096472e+00 1.000000000000e+00 
4.580040636748e+00 1.000000000000e+00 
4.584542177024e+00 1.000000000000e+00 
5.508516163480e+00 1.000000000000e+00 
5.512850980041e+00 1.000000000000e+00 
5.517185796603e+00 1.000000000000e+00 
5.521520613165e+00 1.000000000000e+00 
5.525855429727e+00 1.000000000000e+00 
6.450496311037e+00 1.000000000000e+00 
6.454664403885e+00 1.000000000000e+00 
6.458832496733e+00 1.000000000000e+00 
6.463000589581e+00 1.000000000000e+00 
6.467168682429e+00 1.000000000000e+00 
7.392476458595e+00 1.000000000000e+00 
7.396477827729e+00 1.000000000000e+00 
7.400479196863e+00 1.000000000000e+00 
7.404480565997e+00 1.000000000000e+00 
7.408481935131e+00 1.000000000000e+00 
8.334456606153e+00 1.000000000000e+00 
8.338291251573e+00 1.000000000000e+00 
8.342125896993e+00 1.000000000000e+00 
8.345960542413e+00 1.000000000000e+00 
8.349795187833e+00 1.000000000000e+00 
9.276436753711e+00 1.000000000000e+00 
9.280104675417e+00 1.000000000000e+00 
9.283772597123e+00 1.000000000000e+00 
9.287440518829e+00 1.000000000000e+00 
9.291108440535e+00 1.000000000000e+00 
1.021841690127e+01 1.000000000000e+00 
1.022191809926e+01 1.000000000000e+00 
1.022541929725e+01 1.000000000000e+00 
1.022892049524e+01 1.000000000000e+00 
1.023242169323e+01 1.000000000000e+00 
1.116039704882e+01 1.000000000000e+00 
1.116373152310e+01 1.000000000000e+00 
1.116706599738e+01 1.000000000000e+00 
1.117040047166e+01 1.000000000000e+00 
1.117373494593e+01 1.000000000000e+00 
1.210237719638e+01 1.000000000000e+00 
1.210554494694e+01 1.000000000000e+00 
1.210871269751e+01 1.000000000000e+00 
1.211188044807e+01 1.000000000000e+00 
1.211504819863e+01 1.000000000000e+00 
1.304435734393e+01 1.000000000000e+00 
1.304735837078e+01 1.000000000000e+00 
1.305035939763e+01 1.000000000000e+00 
1.305336042448e+01 1.000000000000e+00 
1.305636145133e+01 1.000000000000e+00 
1.398633749149e+01 1.000000000000e+00 
1.398917179462e+01 1.000000000000e+00 
1.399200609776e+01 1.000000000000e+00 
1.399484040090e+01 1.000000000000e+00 
1.399767470403e+01 1.000000000000e+00 
1.492831763904e+01 1.000000000000e+00 
1.493098521847e+01 1.000000000000e+00 
1.493365279789e+01 1.000000000000e+00 
1.493632037731e+01 1.000000000000e+00 
1.493898795673e+01 1.000000000000e+00 
1.587029778660e+01 1.000000000000e+00 
1.587279864231e+01 1.000000000000e+00 
1.587529949802e+01 1.000000000000e+00 
1.587780035372e+01 1.000000000000e+00 
1.588030120943e+01 1.000000000000e+00 
1.681227793416e+01 1.000000000000e+00 
1.681461206615e+01 1.000000000000e+00 
1.681694619815e+01 1.000000000000e+00 
1.681928033014e+01 1.000000000000e+00 
1.682161446214e+01 1.000000000000e+00 
1.775425808172e+01 1.000000000000e+00 
1.775642549000e+01 1.000000000000e+00 
1.775859289828e+01 1.000000000000e+00 
1.776076030656e+01 1.000000000000e+00 
1.776292771484e+01 1.000000000000e+00 
1.869623822928e+01 1.000000000000e+00 
1.869823891385e+01 1.000000000000e+00 
1.870023959841e+01 1.000000000000e+00 
1.870224028298e+01 1.000000000000e+00 
1.870424096755e+01 1.000000000000e+00 
1.963821837684e+01 1.000000000000e+00 
1.964005233769e+01 1.000000000000e+00 
1.964188629854e+01 1.000000000000e+00 
1.964372025940e+01 1.000000000000e+00 
1.964555422025e+01 1.000000000000e+00 
2.058019852440e+01 1.000000000000e+00 
2.058186576154e+01 1.000000000000e+00 
2.058353299868e+01 1.000000000000e+00 
2.058520023582e+01 1.000000000000e+00 
2.058686747295e+01 1.000000000000e+00 
2.152217867196e+01 1.000000000000e+00 
2.152367918538e+01 1.000000000000e+00 
2.152517969881e+01 1.000000000000e+00 
2.152668021223e+01 1.000000000000e+00 
2.152818072566e+01 1.000000000000e+00 
2.246415881952e+01 1.000000000000e+00 
2.246549260923e+01 1.000000000000e+00 
2.246682639894e+01 1.000000000000e+00 
2.246816018865e+01 1.000000000000e+00 
2.246949397836e+01 1.000000000000e+00 
2.340613896708e+01 1.000000000000e+00 
2.340730603308e+01 1.000000000000e+00 
2.340847309907e+01 1.000000000000e+00 
2.340964016507e+01 1.000000000000e+00 
2.341080723107e+01 1.000000000000e+00 
2.434811911464e+01 1.000000000000e+00 
2.434911945692e+01 1.000000000000e+00 
2.435011979921e+01 1.000000000000e+00 
2.435112014149e+01 1.000000000000e+00 
2.435212048377e+01 1.000000000000e+00 
2.529009926220e+01 1.000000000000e+00 
2.529093288077e+01 1.000000000000e+00 
2.529176649934e+01 1.000000000000e+00 
2.529260011791e+01 1.000000000000e+00 
2.529343373648e+01 1.000000000000e+00 
2.623207940976e+01 1.000000000000e+00 
2.623274630461e+01 1.000000000000e+00 
2.623341319947e+01 1.000000000000e+00 
2.623408009433e+01 1.000000000000e+00 
2.623474698918e+01 1.000000000000e+00 
2.717405955732e+01 1.000000000000e+00 
2.717455972846e+01 1.000000000000e+00 
2.717505989960e+01 1.000000000000e+00 
2.717556007074e+01 1.000000000000e+00 
2.717606024189e+01 1.000000000000e+00 
2.811603970488e+01 1.000000000000e+00 
2.811637315231e+01 1.000000000000e+00 
2.811670659974e+01 1.000000000000e+00 
2.811704004716e+01 1.000000000000e+00 
2.811737349459e+01 1.000000000000e+00 
2.905801985244e+01 1.000000000000e+00 
2.905818657615e+01 1.000000000000e+00 
2.905835329987e+01 1.000000000000e+00 
2.905852002358e+01 1.000000000000e+00 
2.905868674730e+01 1.000000000000e+00 
3.000000000000e+01 1.000000000000e+00 
3.000000000000e+01 1.000000000000e+00 
3.000000000000e+01 1.000000000000e+00 
3.000000000000e+01 1.000000000000e+00 
3.000000000000e+01 1.000000000000e+00 
3.002500000000e+01 9.876207709446e-01 
3.002500000000e+01 9.876207709446e-01 
3.002500000000e+01 9.876207709446e-01 
3.002500000000e+01 9.876207709446e-01 
3.002500000000e+01 9.876207709446e-01 
3.005000000000e+01 9.697756439369e-01 
3.005000000000e+01 9.697756439369e-01 
3.005000000000e+01 9.697756439369e-01 
3.005000000000e+01 9.697756439369e-01 
3.005000000000e+01 9.697756439369e-01 
3.007500000000e+01 9.507134089444e-01 
3.007500000000e+01 9.507134089444e-01 
3.007500000000e+01 9.507134089444e-01 
3.007500000000e+01 9.507134089444e-01 
3.007500000000e+01 9.507134089444e-01 
3.010000000000e+01 9.315621650298e-01 
3.010000000000e+01 9.315621650298e-01 
3.010000000000e+01 9.315621650298e-01 
3.010000000000e+01 9.315621650298e-01 
3.010000000000e+01 9.315621650298e-01 
3.012500000000e+01 9.128758324042e-01 
3.012500000000e+01 9.128758324042e-01 
3.012500000000e+01 9.128758324042e-01 
3.012500000000e+01 9.128758324042e-01 
3.012500000000e+01 9.128758324042e-01 
3.015000000000e+01 8.949248043380e-01 
3.015000000000e+01 8.949248043380e-01 
3.015000000000e+01 8.949248043380e-01 
3.015000000000e+01 8.949248043380e-01 
3.015000000000e+01 8.949248043380e-01 
3.017500000000e+01 8.778290027968e-01 
3.017500000000e+01 8.778290027968e-01 
3.017500000000e+01 8.778290027968e-01 
3.017500000000e+01 8.778290027968e-01 
3.017500000000e+01 8.778290027968e-01 
3.020000000000e+01 8.616255702900e-01 
3.020000000000e+01 8.616255702900e-01 
3.020000000000e+01 8.616255702900e-01 
3.020000000000e+01 8.616255702900e-01 
3.020000000000e+01 8.616255702900e-01 
3.022500000000e+01 8.463059583920e-01 
3.022500000000e+01 8.463059583920e-01 
3.022500000000e+01 8.463059583920e-01 
3.022500000000e+01 8.463059583920e-01 
3.022500000000e+01 8.463059583920e-01 
3.025000000000e+01 8.318370344398e-01 
3.025000000000e+01 8.318370344398e-01 
3.025000000000e+01 8.318370344398e-01 
3.025000000000e+01 8.318370344398e-01 
3.025000000000e+01 8.318370344398e-01 
3.027500000000e+01 8.181733156316e-01 
3.027500000000e+01 8.181733156316e-01 
3.027500000000e+01 8.181733156316e-01 
3.027500000000e+01 8.181733156316e-01 
3.027500000000e+01 8.181733156316e-01 
3.030000000000e+01 8.052640970350e-01 
3.030000000000e+01 8.052640970350e-01 
3.030000000000e+01 8.052640970350e-01 
3.030000000000e+01 8.052640970350e-01 
3.030000000000e+01 8.052640970350e-01 
3.032500000000e+01 7.930575753856e-01 
3.032500000000e+01 7.930575753856e-01 
3.032500000000e+01 7.930575753856e-01 
3.032500000000e+01 7.930575753856e-01 
3.032500000000e+01 7.930575753856e-01 
3.035000000000e+01 7.815031815402e-01 
3.035000000000e+01 7.815031815402e-01 
3.035000000000e+01 7.815031815402e-01 
3.035000000000e+01 7.815031815402e-01 
3.035000000000e+01 7.815031815402e-01 
3.037500000000e+01 7.705528376764e-01 
3.037500000000e+01 7.705528376764e-01 
3.037500000000e+01 7.705528376764e-01 
3.037500000000e+01 7.705528376764e-01 
3.037500000000e+01 7.705528376764e-01 
3.040000000000e+01 7.601615689674e-01 
3.040000000000e+01 7.601615689674e-01 
3.040000000000e+01 7.601615689674e-01 
3.040000000000e+01 7.601615689674e-01 
3.040000000000e+01 7.601615689674e-01 
3.042500000000e+01 7.502877306002e-01 
3.042500000000e+01 7.502877306002e-01 
3.042500000000e+01 7.502877306002e-01 
3.042500000000e+01 7.502877306002e-01 
3.042500000000e+01 7.502877306002e-01 
3.045000000000e+01 7.408930096824e-01 
3.045000000000e+01 7.408930096824e-01 
3.045000000000e+01 7.408930096824e-01 
3.045000000000e+01 7.408930096824e-01 
3.045000000000e+01 7.408930096824e-01 
3.047500000000e+01 7.319422999608e-01 
3.047500000000e+01 7.319422999608e-01 
3.047500000000e+01 7.319422999608e-01 
3.047500000000e+01 7.319422999608e-01 
3.047500000000e+01 7.319422999608e-01 
3.050000000000e+01 7.234035093991e-01 
3.050000000000e+01 7.234035093991e-01 
3.050000000000e+01 7.234035093991e-01 
3.050000000000e+01 7.234035093991e-01 
3.050000000000e+01 7.234035093991e-01 
3.052500000000e+01 7.152473371957e-01 
3.052500000000e+01 7.152473371957e-01 
3.052500000000e+01 7.152473371957e-01 
3.052500000000e+01 7.152473371957e-01 
3.052500000000e+01 7.152473371957e-01 
3.055000000000e+01 7.074470422112e-01 
3.055000000000e+01 7.074470422112e-01 
3.055000000000e+01 7.074470422112e-01 
3.055000000000e+01 7.074470422112e-01 
3.055000000000e+01 7.074470422112e-01 
3.057500000000e+01 6.999782156504e-01 
3.057500000000e+01 6.999782156504e-01 
3.057500000000e+01 6.999782156504e-01 
3.057500000000e+01 6.999782156504e-01 
3.057500000000e+01 6.999782156504e-01 
3.060000000000e+01 6.928185651596e-01 
3.060000000000e+01 6.928185651596e-01 
3.060000000000e+01 6.928185651596e-01 
3.060000000000e+01 6.928185651596e-01 
3.060000000000e+01 6.928185651596e-01 
3.062500000000e+01 6.859477139679e-01 
3.062500000000e+01 6.859477139679e-01 
3.062500000000e+01 6.859477139679e-01 
3.062500000000e+01 6.859477139679e-01 
3.062500000000e+01 6.859477139679e-01 
3.065000000000e+01 6.793470165436e-01 
3.065000000000e+01 6.793470165436e-01 
3.065000000000e+01 6.793470165436e-01 
3.065000000000e+01 6.793470165436e-01 
3.065000000000e+01 6.793470165436e-01 
3.067500000000e+01 6.729993909360e-01 
3.067500000000e+01 6.729993909360e-01 
3.067500000000e+01 6.729993909360e-01 
3.067500000000e+01 6.729993909360e-01 
3.067500000000e+01 6.729993909360e-01 
3.070000000000e+01 6.668891672206e-01 
3.070000000000e+01 6.668891672206e-01 
3.070000000000e+01 6.668891672206e-01 
3.070000000000e+01 6.668891672206e-01 
3.070000000000e+01 6.668891672206e-01 
3.072500000000e+01 6.610019510587e-01 
3.072500000000e+01 6.610019510587e-01 
3.072500000000e+01 6.610019510587e-01 
3.072500000000e+01 6.610019510587e-01 
3.072500000000e+01 6.610019510587e-01 
3.075000000000e+01 6.553245011865e-01 
3.075000000000e+01 6.553245011865e-01 
3.075000000000e+01 6.553245011865e-01 
3.075000000000e+01 6.553245011865e-01 
3.075000000000e+01 6.553245011865e-01 
3.077500000000e+01 6.498446195878e-01 
3.077500000000e+01 6.498446195878e-01 
3.077500000000e+01 6.498446195878e-01 
3.077500000000e+01 6.498446195878e-01 
3.077500000000e+01 6.498446195878e-01 
3.080000000000e+01 6.445510531188e-01 
3.080000000000e+01 6.445510531188e-01 
3.080000000000e+01 6.445510531188e-01 
3.080000000000e+01 6.445510531188e-01 
3.080000000000e+01 6.445510531188e-01 
3.082500000000e+01 6.394334054150e-01 
3.082500000000e+01 6.394334054150e-01 
3.082500000000e+01 6.394334054150e-01 
3.082500000000e+01 6.394334054150e-01 
3.082500000000e+01 6.394334054150e-01 
3.085000000000e+01 6.344820579917e-01 
3.085000000000e+01 6.344820579917e-01 
3.085000000000e+01 6.344820579917e-01 
3.085000000000e+01 6.344820579917e-01 
3.085000000000e+01 6.344820579917e-01 
3.087500000000e+01 6.296880995462e-01 
3.087500000000e+01 6.296880995462e-01 
3.087500000000e+01 6.296880995462e-01 
3.087500000000e+01 6.296880995462e-01 
3.087500000000e+01 6.296880995462e-01 
3.090000000000e+01 6.250432625624e-01 
3.090000000000e+01 6.250432625624e-01 
3.090000000000e+01 6.250432625624e-01 
3.090000000000e+01 6.250432625624e-01 
3.090000000000e+01 6.250432625624e-01 
3.092500000000e+01 6.205398664126e-01 
3.092500000000e+01 6.205398664126e-01 
3.092500000000e+01 6.205398664126e-01 
3.092500000000e+01 6.205398664126e-01 
3.092500000000e+01 6.205398664126e-01 
3.095000000000e+01 6.161707662369e-01 
3.095000000000e+01 6.161707662369e-01 
3.095000000000e+01 6.161707662369e-01 
3.095000000000e+01 6.161707662369e-01 
3.095000000000e+01 6.161707662369e-01 
3.097500000000e+01 6.119293069613e-01 
3.097500000000e+01 6.119293069613e-01 
3.097500000000e+01 6.119293069613e-01 
3.097500000000e+01 6.119293069613e-01 
3.097500000000e+01 6.119293069613e-01 
3.100000000000e+01 6.078092818871e-01 
3.100000000000e+01 6.078092818871e-01 
3.100000000000e+01 6.078092818871e-01 
3.100000000000e+01 6.078092818871e-01 
3.100000000000e+01 6.078092818871e-01 
3.102500000000e+01 6.038048953494e-01 
3.102500000000e+01 6.038048953494e-01 
3.102500000000e+01 6.038048953494e-01 
3.102500000000e+01 6.038048953494e-01 
3.102500000000e+01 6.038048953494e-01 
3.105000000000e+01 5.999107290013e-01 
3.105000000000e+01 5.999107290013e-01 
3.105000000000e+01 5.999107290013e-01 
3.105000000000e+01 5.999107290013e-01 
3.105000000000e+01 5.999107290013e-01 
3.107500000000e+01 5.961217113309e-01 
3.107500000000e+01 5.961217113309e-01 
3.107500000000e+01 5.961217113309e-01 
3.107500000000e+01 5.961217113309e-01 
3.107500000000e+01 5.961217113309e-01 
3.110000000000e+01 5.924330900627e-01 
3.110000000000e+01 5.924330900627e-01 
3.110000000000e+01 5.924330900627e-01 
3.110000000000e+01 5.924330900627e-01 
3.110000000000e+01 5.924330900627e-01 
3.112500000000e+01 5.888404071392e-01 
3.112500000000e+01 5.888404071392e-01 
3.112500000000e+01 5.888404071392e-01 
3.112500000000e+01 5.888404071392e-01 
3.112500000000e+01 5.888404071392e-01 
3.115000000000e+01 5.853394760078e-01 
3.115000000000e+01 5.853394760078e-01 
3.115000000000e+01 5.853394760078e-01 
3.115000000000e+01 5.853394760078e-01 
3.115000000000e+01 5.853394760078e-01 
3.117500000000e+01 5.819263609758e-01 
3.117500000000e+01 5.819263609758e-01 
3.117500000000e+01 5.819263609758e-01 
3.117500000000e+01 5.819263609758e-01 
3.117500000000e+01 5.819263609758e-01 
3.120000000000e+01 5.785973584173e-01 
3.120000000000e+01 5.785973584173e-01 
3.120000000000e+01 5.785973584173e-01 
3.120000000000e+01 5.785973584173e-01 
3.120000000000e+01 5.785973584173e-01 
3.122500000000e+01 5.753489796460e-01 
3.122500000000e+01 5.753489796460e-01 
3.122500000000e+01 5.753489796460e-01 
3.122500000000e+01 5.753489796460e-01 
3.122500000000e+01 5.753489796460e-01 
3.125000000000e+01 5.721779352840e-01 
3.125000000000e+01 5.721779352840e-01 
3.125000000000e+01 5.721779352840e-01 
3.125000000000e+01 5.721779352840e-01 
3.125000000000e+01 5.721779352840e-01 
3.127500000000e+01 5.690811209785e-01 
3.127500000000e+01 5.690811209785e-01 
3.127500000000e+01 5.690811209785e-01 
3.127500000000e+01 5.690811209785e-01 
3.127500000000e+01 5.690811209785e-01 
3.130000000000e+01 5.660556043336e-01 
3.130000000000e+01 5.660556043336e-01 
3.130000000000e+01 5.660556043336e-01 
3.130000000000e+01 5.660556043336e-01 
3.130000000000e+01 5.660556043336e-01 
3.132500000000e+01 5.630986129391e-01 
3.132500000000e+01 5.630986129391e-01 
3.132500000000e+01 5.630986129391e-01 
3.132500000000e+01 5.630986129391e-01 
3.132500000000e+01 5.630986129391e-01 
3.135000000000e+01 5.602075233904e-01 
3.135000000000e+01 5.602075233904e-01 
3.135000000000e+01 5.602075233904e-01 
3.135000000000e+01 5.602075233904e-01 
3.135000000000e+01 5.602075233904e-01 
3.137500000000e+01 5.573798512060e-01 
3.137500000000e+01 5.573798512060e-01 
3.137500000000e+01 5.573798512060e-01 
3.137500000000e+01 5.573798512060e-01 
3.137500000000e+01 5.573798512060e-01 
3.140000000000e+01 5.546132415581e-01 
3.140000000000e+01 5.546132415581e-01 
3.140000000000e+01 5.546132415581e-01 
3.140000000000e+01 5.546132415581e-01 
3.140000000000e+01 5.546132415581e-01 
3.142500000000e+01 5.519054607414e-01 
3.142500000000e+01 5.519054607414e-01 
3.142500000000e+01 5.519054607414e-01 
3.142500000000e+01 5.519054607414e-01 
3.142500000000e+01 5.519054607414e-01 
3.145000000000e+01 5.492543883110e-01 
3.145000000000e+01 5.492543883110e-01 
3.145000000000e+01 5.492543883110e-01 
3.145000000000e+01 5.492543883110e-01 
3.145000000000e+01 5.492543883110e-01 
3.147500000000e+01 5.466580098318e-01 
3.147500000000e+01 5.466580098318e-01 
3.147500000000e+01 5.466580098318e-01 
3.147500000000e+01 5.466580098318e-01 
3.147500000000e+01 5.466580098318e-01 
3.150000000000e+01 5.441144101810e-01 
3.150000000000e+01 5.441144101810e-01 
3.150000000000e+01 5.441144101810e-01 
3.150000000000e+01 5.441144101810e-01 
3.150000000000e+01 5.441144101810e-01 
3.152500000000e+01 5.416217673588e-01 
3.152500000000e+01 5.416217673588e-01 
3.152500000000e+01 5.416217673588e-01 
3.152500000000e+01 5.416217673588e-01 
3.152500000000e+01 5.416217673588e-01 
3.155000000000e+01 5.391783467591e-01 
3.155000000000e+01 5.391783467591e-01 
3.155000000000e+01 5.391783467591e-01 
3.155000000000e+01 5.391783467591e-01 
3.155000000000e+01 5.391783467591e-01 
3.157500000000e+01 5.367824958643e-01 
3.157500000000e+01 5.367824958643e-01 
3.157500000000e+01 5.367824958643e-01 
3.157500000000e+01 5.367824958643e-01 
3.157500000000e+01 5.367824958643e-01 
3.160000000000e+01 5.344326393247e-01 
3.160000000000e+01 5.344326393247e-01 
3.160000000000e+01 5.344326393247e-01 
3.160000000000e+01 5.344326393247e-01 
3.160000000000e+01 5.344326393247e-01 
3.162500000000e+01 5.321272743928e-01 
3.162500000000e+01 5.321272743928e-01 
3.162500000000e+01 5.321272743928e-01 
3.162500000000e+01 5.321272743928e-01 
3.162500000000e+01 5.321272743928e-01 
3.165000000000e+01 5.298649666811e-01 
3.165000000000e+01 5.298649666811e-01 
3.165000000000e+01 5.298649666811e-01 
3.165000000000e+01 5.298649666811e-01 
3.165000000000e+01 5.298649666811e-01 
3.167500000000e+01 5.276443462180e-01 
3.167500000000e+01 5.276443462180e-01 
3.167500000000e+01 5.276443462180e-01 
3.167500000000e+01 5.276443462180e-01 
3.167500000000e+01 5.276443462180e-01 
3.170000000000e+01 5.254641037767e-01 
3.170000000000e+01 5.254641037767e-01 
3.170000000000e+01 5.254641037767e-01 
3.170000000000e+01 5.254641037767e-01 
3.170000000000e+01 5.254641037767e-01 
3.172500000000e+01 5.233229874560e-01 
3.172500000000e+01 5.233229874560e-01 
3.172500000000e+01 5.233229874560e-01 
3.172500000000e+01 5.233229874560e-01 
3.172500000000e+01 5.233229874560e-01 
3.175000000000e+01 5.212197994921e-01 
3.175000000000e+01 5.212197994921e-01 
3.175000000000e+01 5.212197994921e-01 
3.175000000000e+01 5.212197994921e-01 
3.175000000000e+01 5.212197994921e-01 
3.177500000000e+01 5.191533932842e-01 
3.177500000000e+01 5.191533932842e-01 
3.177500000000e+01 5.191533932842e-01 
3.177500000000e+01 5.191533932842e-01 
3.177500000000e+01 5.191533932842e-01 
3.180000000000e+01 5.171226706164e-01 
3.180000000000e+01 5.171226706164e-01 
3.180000000000e+01 5.171226706164e-01 
3.180000000000e+01 5.171226706164e-01 
3.180000000000e+01 5.171226706164e-01 
3.182500000000e+01 5.151265790614e-01 
3.182500000000e+01 5.151265790614e-01 
3.182500000000e+01 5.151265790614e-01 
3.182500000000e+01 5.151265790614e-01 
3.182500000000e+01 5.151265790614e-01 
3.185000000000e+01 5.131641095520e-01 
3.185000000000e+01 5.131641095520e-01 
3.185000000000e+01 5.131641095520e-01 
3.185000000000e+01 5.131641095520e-01 
3.185000000000e+01 5.131641095520e-01 
3.187500000000e+01 5.112342941078e-01 
3.187500000000e+01 5.112342941078e-01 
3.187500000000e+01 5.112342941078e-01 
3.187500000000e+01 5.112342941078e-01 
3.187500000000e+01 5.112342941078e-01 
3.190000000000e+01 5.093362037054e-01 
3.190000000000e+01 5.093362037054e-01 
3.190000000000e+01 5.093362037054e-01 
3.190000000000e+01 5.093362037054e-01 
3.190000000000e+01 5.093362037054e-01 
3.192500000000e+01 5.074689462822e-01 
3.192500000000e+01 5.074689462822e-01 
3.192500000000e+01 5.074689462822e-01 
3.192500000000e+01 5.074689462822e-01 
3.192500000000e+01 5.074689462822e-01 
3.195000000000e+01 5.056316648631e-01 
3.195000000000e+01 5.056316648631e-01 
3.195000000000e+01 5.056316648631e-01 
3.195000000000e+01 5.056316648631e-01 
3.195000000000e+01 5.056316648631e-01 
3.197500000000e+01 5.038235358020e-01 
3.197500000000e+01 5.038235358020e-01 
3.197500000000e+01 5.038235358020e-01 
3.197500000000e+01 5.038235358020e-01 
3.197500000000e+01 5.038235358020e-01 
3.200000000000e+01 5.013029335436e-01 
3.200000000000e+01 5.013056371604e-01 
3.200000000000e+01 5.013069876480e-01 
3.200000000000e+01 5.013042857920e-01 
3.200000000000e+01 5.013083372540e-01 
3.294811911465e+01 4.490328155282e-01 
3.294911945693e+01 4.489883347155e-01 
3.295011979922e+01 4.489438726038e-01 
3.295112014150e+01 4.488994291798e-01 
3.295212048378e+01 4.488550044303e-01 
3.389623822930e+01 4.153456296365e-01 
3.389823891387e+01 4.152849031121e-01 
3.390023959843e+01 4.152242170525e-01 
3.390224028300e+01 4.151635714110e-01 
3.390424096757e+01 4.151029661411e-01 
3.484435734395e+01 3.907803998584e-01 
3.484735837080e+01 3.907121350003e-01 
3.485035939765e+01 3.906439254372e-01 
3.485336042450e+01 3.905757710912e-01 
3.485636145135e+01 3.905076718844e-01 
3.579247645860e+01 3.717615861861e-01 
3.579647782773e+01 3.716896808727e-01 
3.580047919686e+01 3.716178407479e-01 
3.580448056600e+01 3.715460657086e-01 
3.580848193513e+01 3.714743556521e-01 
3.674059557325e+01 3.564072533313e-01 
3.674559728466e+01 3.563336496899e-01 
3.675059899608e+01 3.562601179066e-01 
3.675560070750e+01 3.561866578589e-01 
3.676060241892e+01 3.561132694246e-01 
 TITLE = "Profiles along polylines"
 VARIABLES = "DIST" "SATURATION1" 
 ZONE T="TIME=1.797693134862e+308"
1.740595573246e+00 1.000000000000e+00 
1.745597284663e+00 1.000000000000e+00 
1.750598996081e+00 1.000000000000e+00 
1.755600707498e+00 1.000000000000e+00 
1.760602418916e+00 1.000000000000e+00 
2.682575720804e+00 1.000000000000e+00 
2.687410708508e+00 1.000000000000e+00 
2.692245696211e+00 1.000000000000e+00 
2.697080683915e+00 1.000000000000e+00 
2.701915671618e+00 1.000000000000e+00 
3.624555868362e+00 1.000000000000e+00 
3.629224132352e+00 1.000000000000e+00 
3.633892396341e+00 1.000000000000e+00 
3.638560660331e+00 1.000000000000e+00 
3.643228924320e+00 1.000000000000e+00 
4.566536015921e+00 1.000000000000e+00 
4.571037556197e+00 1.000000000000e+00 
4.575539096472e+00 1.000000000000e+00 
4.580040636748e+00 1.000000000000e+00 
4.584542177024e+00 1.000000000000e+00 
5.508516163480e+00 1.000000000000e+00 
5.512850980041e+00 1.000000000000e+00 
5.517185796603e+00 1.000000000000e+00 
5.521520613165e+00 1.000000000000e+00 
5.525855429727e+00 1.000000000000e+00 
6.450496311037e+00 1.000000000000e+00 
6.454664403885e+00 1.000000000000e+00 
6.458832496733e+00 1.000000000000e+00 
6.463000589581e+00 1.000000000000e+00 
6.467168682429e+00 1.000000000000e+00 
7.392476458595e+00 1.000000000000e+00 
7.396477827729e+00 1.000000000000e+00 
7.400479196863e+00 1.000000000000e+00 
7.404480565997e+00 1.000000000000e+00 
7.408481935131e+00 1.000000000000e+00 
8.334456606153e+00 1.000000000000e+00 
8.338291251573e+00 1.000000000000e+00 
8.342125896993e+00 1.000000000000e+00 
8.345960542413e+00 1.000000000000e+00 
8.349795187833e+00 1.000000000000e+00 
9.276436753711e+00 1.000000000000e+00 
9.280104675417e+00 1.000000000000e+00 
9.283772597123e+00 1.000000000000e+00 
9.287440518829e+00 1.000000000000e+00 
9.291108440535e+00 1.000000000000e+00 
1.021841690127e+01 1.000000000000e+00 
1.022191809926e+01 1.000000000000e+00 
1.022541929725e+01 1.000000000000e+00 
1.022892049524e+01 1.000000000000e+00 
1.023242169323e+01 1.000000000000e+00 
1.116039704882e+01 1.000000000000e+00 
1.116373152310e+01 1.000000000000e+00 
1.116706599738e+01 1.000000000000e+00 
1.117040047166e+01 1.000000000000e+00 
1.117373494593e+01 1.000000000000e+00 
1.210237719638e+01 1.000000000000e+00 
1.210554494694e+01 1.000000000000e+00 
1.210871269751e+01 1.000000000000e+00 
1.211188044807e+01 1.000000000000e+00 
1.211504819863e+01 1.000000000000e+00 
1.304435734393e+01 1.000000000000e+00 
1.304735837078e+01 1.000000000000e+00 
1.305035939763e+01 1.000000000000e+00 
1.305336042448e+01 1.000000000000e+00 
1.305636145133e+01 1.000000000000e+00 
1.398633749149e+01 1.000000000000e+00 
1.398917179462e+01 1.000000000000e+00 
1.399200609776e+01 1.000000000000e+00 
1.399484040090e+01 1.000000000000e+00 
1.399767470403e+01 1.000000000000e+00 
1.492831763904e+01 1.000000000000e+00 
1.493098521847e+01 1.000000000000e+00 
1.493365279789e+01 1.000000000000e+00 
1.493632037731e+01 1.000000000000e+00 
1.493898795673e+01 1.000000000000e+00 
1.587029778660e+01 1.000000000000e+00 
1.587279864231e+01 1.000000000000e+00 
1.587529949802e+01 1.000000000000e+00 
1.587780035372e+01 1.000000000000e+00 
1.588030120943e+01 1.000000000000e+00 
1.681227793416e+01 1.000000000000e+00 
1.681461206615e+01 1.000000000000e+00 
1.681694619815e+01 1.000000000000e+00 
1.681928033014e+01 1.000000000000e+00 
1.682161446214e+01 1.000000000000e+00 
1.775425808172e+01 1.000000000000e+00 
1.775642549000e+01 1.000000000000e+00 
1.775859289828e+01 1.000000000000e+00 
1.776076030656e+01 1.000000000000e+00 
1.776292771484e+01 1.000000000000e+00 
1.869623822928e+01 1.000000000000e+00 
1.869823891385e+01 1.000000000000e+00 
1.870023959841e+01 1.000000000000e+00 
1.870224028298e+01 1.000000000000e+00 
1.870424096755e+01 1.000000000000e+00 
1.963821837684e+01 1.000000000000e+00 
1.964005233769e+01 1.000000000000e+00 
1.964188629854e+01 1.000000000000e+00 
1.964372025940e+01 1.000000000000e+00 
1.964555422025e+01 1.000000000000e+00 
2.058019852440e+01 1.000000000000e+00 
2.058186576154e+01 1.000000000000e+00 
2.058353299868e+01 1.000000000000e+00 
2.058520023582e+01 1.000000000000e+00 
2.058686747295e+01 1.000000000000e+00 
2.152217867196e+01 1.000000000000e+00 
2.152367918538e+01 1.000000000000e+00 
2.152517969881e+01 1.000000000000e+00 
2.152668021223e+01 1.000000000000e+00 
2.152818072566e+01 1.000000000000e+00 
2.246415881952e+01 1.000000000000e+00 
2.246549260923e+01 1.000000000000e+00 
2.246682639894e+01 1.000000000000e+00 
2.246816018865e+01 1.000000000000e+00 
2.246949397836e+01 1.000000000000e+00 
2.340613896708e+01 1.000000000000e+00 
2.340730603308e+01 1.000000000000e+00 
2.340847309907e+01 1.000000000000e+00 
2.340964016507e+01 1.000000000000e+00 
2.341080723107e+01 1.000000000000e+00 
2.434811911464e+01 1.000000000000e+00 
2.434911945692e+01 1.000000000000e+00 
2.435011979921e+01 1.000000000000e+00 
2.435112014149e+01 1.000000000000e+00 
2.435212048377e+01 1.000000000000e+00 
2.529009926220e+01 1.000000000000e+00 
2.529093288077e+01 1.000000000000e+00 
2.529176649934e+01 1.000000000000e+00 
2.529260011791e+01 1.000000000000e+00 
2.529343373648e+01 1.000000000000e+00 
2.623207940976e+01 1.000000000000e+00 
2.623274630461e+01 1.000000000000e+00 
2.623341319947e+01 1.000000000000e+00 
2.623408009433e+01 1.000000000000e+00 
2.623474698918e+01 1.000000000000e+00 
2.717405955732e+01 1.000000000000e+00 
2.717455972846e+01 1.000000000000e+00 
2.717505989960e+01 1.000000000000e+00 
2.717556007074e+01 1.000000000000e+00 
2.717606024189e+01 1.000000000000e+00 
2.811603970488e+01 1.000000000000e+00 
2.811637315231e+01 1.000000000000e+00 
2.811670659974e+01 1.000000000000e+00 
2.811704004716e+01 1.000000000000e+00 
2.811737349459e+01 1.000000000000e+00 
2.905801985244e+01 1.000000000000e+00 
2.905818657615e+01 1.000000000000e+00 
2.905835329987e+01 1.000000000000e+00 
2.905852002358e+01 1.000000000000e+00 
2.905868674730e+01 1.000000000000e+00 
3.000000000000e+01 1.000000000000e+00 
3.000000000000e+01 1.000000000000e+00 
3.000000000000e+01 1.000000000000e+00 
3.000000000000e+01 1.000000000000e+00 
3.000000000000e+01 1.000000000000e+00 
3.002500000000e+01 1.000000000000e+00 
3.002500000000e+01 1.000000000000e+00 
3.002500000000e+01 1.000000000000e+00 
3.002500000000e+01 1.000000000000e+00 
3.002500000000e+01 1.000000000000e+00 
3.005000000000e+01 1.000000000000e+00 
3.005000000000e+01 1.000000000000e+00 
3.005000000000e+01 1.000000000000e+00 
3.005000000000e+01 1.000000000000e+00 
3.005000000000e+01 1.000000000000e+00 
3.007500000000e+01 1.000000000000e+00 
3.007500000000e+01 1.000000000000e+00 
3.007500000000e+01 1.000000000000e+00 
3.007500000000e+01 1.000000000000e+00 
3.007500000000e+01 1.000000000000e+00 
3.010000000000e+01 1.000000000000e+00 
3.010000000000e+01 1.000000000000e+00 
3.010000000000e+01 1.000000000000e+00 
3.010000000000e+01 1.000000000000e+00 
3.010000000000e+01 1.000000000000e+00 
3.012500000000e+01 1.000000000000e+00 
3.012500000000e+01 1.000000000000e+00 
3.012500000000e+01 1.000000000000e+00 
3.012500000000e+01 1.000000000000e+00 
3.012500000000e+01 1.000000000000e+00 
3.015000000000e+01 1.000000000000e+00 
3.015000000000e+01 1.000000000000e+00 
3.015000000000e+01 1.000000000000e+00 