 TITLE = "Profiles along polylines"
 VARIABLES = "DIST" "SATURATION1" 
 ZONE T="TIME=0.000000000000e+00"
6.402190614222e-01 1.000000000000e+00 
6.452207728395e-01 1.000000000000e+00 
6.502224842569e-01 1.000000000000e+00 
6.552241956743e-01 1.000000000000e+00 
6.602259070917e-01 1.000000000000e+00 
1.618878426041e+00 1.000000000000e+00 
1.623713413745e+00 1.000000000000e+00 
1.628548401448e+00 1.000000000000e+00 
1.633383389152e+00 1.000000000000e+00 
1.638218376855e+00 1.000000000000e+00 
2.597537790660e+00 1.000000000000e+00 
2.602206054649e+00 1.000000000000e+00 
2.606874318639e+00 1.000000000000e+00 
2.611542582628e+00 1.000000000000e+00 
2.616210846618e+00 1.000000000000e+00 
3.576197155280e+00 1.000000000000e+00 
3.580698695555e+00 1.000000000000e+00 
3.585200235831e+00 1.000000000000e+00 
3.589701776106e+00 1.000000000000e+00 
3.594203316382e+00 1.000000000000e+00 
4.554856519899e+00 1.000000000000e+00 
4.559191336461e+00 1.000000000000e+00 
4.563526153022e+00 1.000000000000e+00 
4.567860969584e+00 1.000000000000e+00 
4.572195786146e+00 1.000000000000e+00 
5.533515884517e+00 1.000000000000e+00 
5.537683977365e+00 1.000000000000e+00 
5.541852070213e+00 1.000000000000e+00 
5.546020163061e+00 1.000000000000e+00 
5.550188255909e+00 1.000000000000e+00 
6.512175249136e+00 1.000000000000e+00 
6.516176618270e+00 1.000000000000e+00 
6.520177987404e+00 1.000000000000e+00 
6.524179356537e+00 1.000000000000e+00 
6.528180725671e+00 1.000000000000e+00 
7.490834613754e+00 1.000000000000e+00 
7.494669259174e+00 1.000000000000e+00 
7.498503904594e+00 1.000000000000e+00 
7.502338550014e+00 1.000000000000e+00 
7.506173195434e+00 1.000000000000e+00 
8.469493978373e+00 1.000000000000e+00 
8.473161900079e+00 1.000000000000e+00 
8.476829821785e+00 1.000000000000e+00 
8.480497743491e+00 1.000000000000e+00 
8.484165665197e+00 1.000000000000e+00 
9.448153342988e+00 1.000000000000e+00 
9.451654540981e+00 1.000000000000e+00 
9.455155738973e+00 1.000000000000e+00 
9.458656936965e+00 1.000000000000e+00 
9.462158134957e+00 1.000000000000e+00 
1.042681270760e+01 1.000000000000e+00 
1.043014718188e+01 1.000000000000e+00 
1.043348165616e+01 1.000000000000e+00 
1.043681613044e+01 1.000000000000e+00 
1.044015060472e+01 1.000000000000e+00 
1.140547207222e+01 1.000000000000e+00 
1.140863982278e+01 1.000000000000e+00 
1.141180757335e+01 1.000000000000e+00 
1.141497532391e+01 1.000000000000e+00 
1.141814307448e+01 1.000000000000e+00 
1.238413143684e+01 1.000000000000e+00 
1.238713246369e+01 1.000000000000e+00 
1.239013349054e+01 1.000000000000e+00 
1.239313451739e+01 1.000000000000e+00 
1.239613554424e+01 1.000000000000e+00 
1.336279080145e+01 1.000000000000e+00 
1.336562510459e+01 1.000000000000e+00 
1.336845940772e+01 1.000000000000e+00 
1.337129371086e+01 1.000000000000e+00 
1.337412801400e+01 1.000000000000e+00 
1.434145016607e+01 1.000000000000e+00 
1.434411774549e+01 1.000000000000e+00 
1.434678532491e+01 1.000000000000e+00 
1.434945290433e+01 1.000000000000e+00 
1.435212048376e+01 1.000000000000e+00 
1.532010953068e+01 1.000000000000e+00 
1.532261038639e+01 1.000000000000e+00 
1.532511124210e+01 1.000000000000e+00 
1.532761209781e+01 1.000000000000e+00 
1.533011295352e+01 1.000000000000e+00 
1.629876889530e+01 1.000000000000e+00 
1.630110302730e+01 1.000000000000e+00 
1.630343715929e+01 1.000000000000e+00 
1.630577129129e+01 1.000000000000e+00 
1.630810542328e+01 1.000000000000e+00 
1.727742825992e+01 1.000000000000e+00 
1.727959566821e+01 1.000000000000e+00 
1.728176307649e+01 1.000000000000e+00 
1.728393048477e+01 1.000000000000e+00 
1.728609789305e+01 1.000000000000e+00 
1.825608762455e+01 1.000000000000e+00 
1.825808830911e+01 1.000000000000e+00 
1.826008899368e+01 1.000000000000e+00 
1.826208967825e+01 1.000000000000e+00 
1.826409036281e+01 1.000000000000e+00 
1.923474698917e+01 1.000000000000e+00 
1.923658095002e+01 1.000000000000e+00 
1.923841491087e+01 1.000000000000e+00 
1.924024887173e+01 1.000000000000e+00 
1.924208283258e+01 1.000000000000e+00 
2.021340635379e+01 1.000000000000e+00 
2.021507359093e+01 1.000000000000e+00 
2.021674082807e+01 1.000000000000e+00 
2.021840806521e+01 1.000000000000e+00 
2.022007530234e+01 1.000000000000e+00 
2.119206571841e+01 1.000000000000e+00 
2.119356623183e+01 1.000000000000e+00 
2.119506674526e+01 1.000000000000e+00 
2.119656725869e+01 1.000000000000e+00 
2.119806777211e+01 1.000000000000e+00 
2.217072508303e+01 1.000000000000e+00 
2.217205887274e+01 1.000000000000e+00 
2.217339266245e+01 1.000000000000e+00 
2.217472645216e+01 1.000000000000e+00 
2.217606024188e+01 1.000000000000e+00 
2.314938444765e+01 1.000000000000e+00 
2.315055151365e+01 1.000000000000e+00 
2.315171857965e+01 1.000000000000e+00 
2.315288564564e+01 1.000000000000e+00 
2.315405271164e+01 1.000000000000e+00 
2.412804381227e+01 1.000000000000e+00 
2.412904415456e+01 1.000000000000e+00 
2.413004449684e+01 1.000000000000e+00 
2.413104483912e+01 1.000000000000e+00 
2.413204518141e+01 1.000000000000e+00 
2.510670317689e+01 1.000000000000e+00 
2.510753679546e+01 1.000000000000e+00 
2.510837041403e+01 1.000000000000e+00 
2.510920403260e+01 1.000000000000e+00 
2.511003765117e+01 1.000000000000e+00 
2.608536254152e+01 1.000000000000e+00 
2.608602943637e+01 1.000000000000e+00 
2.608669633123e+01 1.000000000000e+00 
2.608736322608e+01 1.000000000000e+00 
2.608803012094e+01 1.000000000000e+00 
2.706402190614e+01 1.000000000000e+00 
2.706452207728e+01 1.000000000000e+00 
2.706502224842e+01 1.000000000000e+00 
2.706552241956e+01 1.000000000000e+00 
2.706602259070e+01 1.000000000000e+00 
2.804268127076e+01 1.000000000000e+00 
2.804301471819e+01 1.000000000000e+00 
2.804334816561e+01 1.000000000000e+00 
2.804368161304e+01 1.000000000000e+00 
2.804401506047e+01 1.000000000000e+00 
2.902134063538e+01 1.000000000000e+00 
2.902150735909e+01 1.000000000000e+00 
2.902167408281e+01 1.000000000000e+00 
2.902184080652e+01 1.000000000000e+00 
2.902200753023e+01 1.000000000000e+00 
3.000000000000e+01 1.000000000000e+00 
3.000000000000e+01 1.000000000000e+00 
3.000000000000e+01 1.000000000000e+00 
3.000000000000e+01 1.000000000000e+00 
3.000000000000e+01 1.000000000000e+00 
3.002500000000e+01 9.876207709446e-01 
3.002500000000e+01 9.876207709446e-01 
3.002500000000e+01 9.876207709446e-01 
3.002500000000e+01 9.876207709446e-01 
3.002500000000e+01 9.876207709446e-01 
3.005000000000e+01 9.697756439369e-01 
3.005000000000e+01 9.697756439369e-01 
3.005000000000e+01 9.697756439369e-01 
3.005000000000e+01 9.697756439369e-01 
3.005000000000e+01 9.697756439369e-01 
3.007500000000e+01 9.507134089444e-01 
3.007500000000e+01 9.507134089444e-01 
3.007500000000e+01 9.507134089444e-01 
3.007500000000e+01 9.507134089444e-01 
3.007500000000e+01 9.507134089444e-01 
3.010000000000e+01 9.315621650298e-01 
3.010000000000e+01 9.315621650298e-01 
3.010000000000e+01 9.315621650298e-01 
3.010000000000e+01 9.315621650298e-01 
3.010000000000e+01 9.315621650298e-01 
3.012500000000e+01 9.128758324042e-01 
3.012500000000e+01 9.128758324042e-01 
3.012500000000e+01 9.128758324042e-01 
3.012500000000e+01 9.128758324042e-01 
3.012500000000e+01 9.128758324042e-01 
3.015000000000e+01 8.949248043380e-01 
3.015000000000e+01 8.949248043380e-01 
3.015000000000e+01 8.949248043380e-01 
3.015000000000e+01 8.949248043380e-01 
3.015000000000e+01 8.949248043380e-01 
3.017500000000e+01 8.778290027968e-01 
3.017500000000e+01 8.778290027968e-01 
3.017500000000e+01 8.778290027968e-01 
3.017500000000e+01 8.778290027968e-01 
3.017500000000e+01 8.778290027968e-01 
3.020000000000e+01 8.616255702900e-01 
3.020000000000e+01 8.616255702900e-01 
3.020000000000e+01 8.616255702900e-01 
3.020000000000e+01 8.616255702900e-01 
3.020000000000e+01 8.616255702900e-01 
3.022500000000e+01 8.463059583920e-01 
3.022500000000e+01 8.463059583920e-01 
3.022500000000e+01 8.463059583920e-01 
3.022500000000e+01 8.463059583920e-01 
3.022500000000e+01 8.463059583920e-01 
3.025000000000e+01 8.318370344398e-01 
3.025000000000e+01 8.318370344398e-01 
3.025000000000e+01 8.318370344398e-01 
3.025000000000e+01 8.318370344398e-01 
3.025000000000e+01 8.318370344398e-01 
3.027500000000e+01 8.181733156316e-01 
3.027500000000e+01 8.181733156316e-01 
3.027500000000e+01 8.181733156316e-01 
3.027500000000e+01 8.181733156316e-01 
3.027500000000e+01 8.181733156316e-01 
3.030000000000e+01 8.052640970350e-01 
3.030000000000e+01 8.052640970350e-01 
3.030000000000e+01 8.052640970350e-01 
3.030000000000e+01 8.052640970350e-01 
3.030000000000e+01 8.052640970350e-01 
3.032500000000e+01 7.930575753856e-01 
3.032500000000e+01 7.930575753856e-01 
3.032500000000e+01 7.930575753856e-01 
3.032500000000e+01 7.930575753856e-01 
3.032500000000e+01 7.930575753856e-01 
3.035000000000e+01 7.815031815402e-01 
3.035000000000e+01 7.815031815402e-01 
3.035000000000e+01 7.815031815402e-01 
3.035000000000e+01 7.815031815402e-01 
3.035000000000e+01 7.815031815402e-01 
3.037500000000e+01 7.705528376764e-01 
3.037500000000e+01 7.705528376764e-01 
3.037500000000e+01 7.705528376764e-01 
3.037500000000e+01 7.705528376764e-01 
3.037500000000e+01 7.705528376764e-01 
3.040000000000e+01 7.601615689674e-01 
3.040000000000e+01 7.601615689674e-01 
3.040000000000e+01 7.601615689674e-01 
3.040000000000e+01 7.601615689674e-01 
3.040000000000e+01 7.601615689674e-01 
3.042500000000e+01 7.502877306002e-01 
3.042500000000e+01 7.502877306002e-01 
3.042500000000e+01 7.502877306002e-01 
3.042500000000e+01 7.502877306002e-01 
3.042500000000e+01 7.502877306002e-01 
3.045000000000e+01 7.408930096824e-01 
3.045000000000e+01 7.408930096824e-01 
3.045000000000e+01 7.408930096824e-01 
3.045000000000e+01 7.408930096824e-01 
3.045000000000e+01 7.408930096824e-01 
3.047500000000e+01 7.319422999608e-01 
3.047500000000e+01 7.319422999608e-01 
3.047500000000e+01 7.319422999608e-01 
3.047500000000e+01 7.319422999608e-01 
3.047500000000e+01 7.319422999608e-01 
3.050000000000e+01 7.234035093991e-01 
3.050000000000e+01 7.234035093991e-01 
3.050000000000e+01 7.234035093991e-01 
3.050000000000e+01 7.234035093991e-01 
3.050000000000e+01 7.234035093991e-01 
3.052500000000e+01 7.152473371957e-01 
3.052500000000e+01 7.152473371957e-01 
3.052500000000e+01 7.152473371957e-01 
3.052500000000e+01 7.152473371957e-01 
3.052500000000e+01 7.152473371957e-01 
3.055000000000e+01 7.074470422112e-01 
3.055000000000e+01 7.074470422112e-01 
3.055000000000e+01 7.074470422112e-01 
3.055000000000e+01 7.074470422112e-01 
3.055000000000e+01 7.074470422112e-01 
3.057500000000e+01 6.999782156504e-01 
3.057500000000e+01 6.999782156504e-01 
3.057500000000e+01 6.999782156504e-01 
3.057500000000e+01 6.999782156504e-01 
3.057500000000e+01 6.999782156504e-01 
3.060000000000e+01 6.928185651596e-01 
3.060000000000e+01 6.928185651596e-01 
3.060000000000e+01 6.928185651596e-01 
3.060000000000e+01 6.928185651596e-01 
3.060000000000e+01 6.928185651596e-01 
3.062500000000e+01 6.859477139679e-01 
3.062500000000e+01 6.859477139679e-01 
3.062500000000e+01 6.859477139679e-01 
3.062500000000e+01 6.859477139679e-01 
3.062500000000e+01 6.859477139679e-01 
3.065000000000e+01 6.793470165436e-01 
3.065000000000e+01 6.793470165436e-01 
3.065000000000e+01 6.793470165436e-01 
3.065000000000e+01 6.793470165436e-01 
3.065000000000e+01 6.793470165436e-01 
3.067500000000e+01 6.729993909360e-01 
3.067500000000e+01 6.729993909360e-01 
3.067500000000e+01 6.729993909360e-01 
3.067500000000e+01 6.729993909360e-01 
3.067500000000e+01 6.729993909360e-01 
3.070000000000e+01 6.668891672206e-01 
3.070000000000e+01 6.668891672206e-01 
3.070000000000e+01 6.668891672206e-01 
3.070000000000e+01 6.668891672206e-01 
3.070000000000e+01 6.668891672206e-01 
3.072500000000e+01 6.610019510587e-01 
3.072500000000e+01 6.610019510587e-01 
3.072500000000e+01 6.610019510587e-01 
3.072500000000e+01 6.610019510587e-01 
3.072500000000e+01 6.610019510587e-01 
3.075000000000e+01 6.553245011865e-01 
3.075000000000e+01 6.553245011865e-01 
3.075000000000e+01 6.553245011865e-01 
3.075000000000e+01 6.553245011865e-01 
3.075000000000e+01 6.553245011865e-01 
3.077500000000e+01 6.498446195878e-01 
3.077500000000e+01 6.498446195878e-01 
3.077500000000e+01 6.498446195878e-01 
3.077500000000e+01 6.498446195878e-01 
3.077500000000e+01 6.498446195878e-01 
3.080000000000e+01 6.445510531188e-01 
3.080000000000e+01 6.445510531188e-01 
3.080000000000e+01 6.445510531188e-01 
3.080000000000e+01 6.445510531188e-01 
3.080000000000e+01 6.445510531188e-01 
3.082500000000e+01 6.394334054150e-01 
3.082500000000e+01 6.394334054150e-01 
3.082500000000e+01 6.394334054150e-01 
3.082500000000e+01 6.394334054150e-01 
3.082500000000e+01 6.394334054150e-01 
3.085000000000e+01 6.344820579917e-01 
3.085000000000e+01 6.344820579917e-01 
3.085000000000e+01 6.344820579917e-01 
3.085000000000e+01 6.344820579917e-01 
3.085000000000e+01 6.344820579917e-01 
3.087500000000e+01 6.296880995462e-01 
3.087500000000e+01 6.296880995462e-01 
3.087500000000e+01 6.296880995462e-01 
3.087500000000e+01 6.296880995462e-01 
3.087500000000e+01 6.296880995462e-01 
3.090000000000e+01 6.250432625624e-01 
3.090000000000e+01 6.250432625624e-01 
3.090000000000e+01 6.250432625624e-01 
3.090000000000e+01 6.250432625624e-01 
3.090000000000e+01 6.250432625624e-01 
3.092500000000e+01 6.205398664126e-01 
3.092500000000e+01 6.205398664126e-01 
3.092500000000e+01 6.205398664126e-01 
3.092500000000e+01 6.205398664126e-01 
3.092500000000e+01 6.205398664126e-01 
3.095000000000e+01 6.161707662369e-01 
3.095000000000e+01 6.161707662369e-01 
3.095000000000e+01 6.161707662369e-01 
3.095000000000e+01 6.161707662369e-01 
3.095000000000e+01 6.161707662369e-01 
3.097500000000e+01 6.119293069613e-01 
3.097500000000e+01 6.119293069613e-01 
3.097500000000e+01 6.119293069613e-01 
3.097500000000e+01 6.119293069613e-01 
3.097500000000e+01 6.119293069613e-01 
3.100000000000e+01 6.078092818871e-01 
3.100000000000e+01 6.078092818871e-01 
3.100000000000e+01 6.078092818871e-01 
3.100000000000e+01 6.078092818871e-01 
3.100000000000e+01 6.078092818871e-01 
3.102500000000e+01 6.038048953494e-01 
3.102500000000e+01 6.038048953494e-01 
3.102500000000e+01 6.038048953494e-01 
3.102500000000e+01 6.038048953494e-01 
3.102500000000e+01 6.038048953494e-01 
3.105000000000e+01 5.999107290013e-01 
3.105000000000e+01 5.999107290013e-01 
3.105000000000e+01 5.999107290013e-01 
3.105000000000e+01 5.999107290013e-01 
3.105000000000e+01 5.999107290013e-01 
3.107500000000e+01 5.961217113309e-01 
3.107500000000e+01 5.961217113309e-01 
3.107500000000e+01 5.961217113309e-01 
3.107500000000e+01 5.961217113309e-01 
3.107500000000e+01 5.961217113309e-01 
3.110000000000e+01 5.924330900627e-01 
3.110000000000e+01 5.924330900627e-01 
3.110000000000e+01 5.924330900627e-01 
3.110000000000e+01 5.924330900627e-01 
3.110000000000e+01 5.924330900627e-01 
3.112500000000e+01 5.888404071392e-01 
3.112500000000e+01 5.888404071392e-01 
3.112500000000e+01 5.888404071392e-01 
3.112500000000e+01 5.888404071392e-01 
3.112500000000e+01 5.888404071392e-01 
3.115000000000e+01 5.853394760078e-01 
3.115000000000e+01 5.853394760078e-01 
3.115000000000e+01 5.853394760078e-01 
3.115000000000e+01 5.853394760078e-01 
3.115000000000e+01 5.853394760078e-01 
3.117500000000e+01 5.819263609758e-01 
3.117500000000e+01 5.819263609758e-01 
3.117500000000e+01 5.819263609758e-01 
3.117500000000e+01 5.819263609758e-01 
3.117500000000e+01 5.819263609758e-01 
3.120000000000e+01 5.785973584173e-01 
3.120000000000e+01 5.785973584173e-01 
3.120000000000e+01 5.785973584173e-01 
3.120000000000e+01 5.785973584173e-01 
3.120000000000e+01 5.785973584173e-01 
3.122500000000e+01 5.753489796460e-01 
3.122500000000e+01 5.753489796460e-01 
3.122500000000e+01 5.753489796460e-01 
3.122500000000e+01 5.753489796460e-01 
3.122500000000e+01 5.753489796460e-01 
3.125000000000e+01 5.721779352840e-01 
3.125000000000e+01 5.721779352840e-01 
3.125000000000e+01 5.721779352840e-01 
3.125000000000e+01 5.721779352840e-01 
3.125000000000e+01 5.721779352840e-01 
3.127500000000e+01 5.690811209785e-01 
3.127500000000e+01 5.690811209785e-01 
3.127500000000e+01 5.690811209785e-01 
3.127500000000e+01 5.690811209785e-01 
3.127500000000e+01 5.690811209785e-01 
3.130000000000e+01 5.660556043336e-01 
3.130000000000e+01 5.660556043336e-01 
3.130000000000e+01 5.660556043336e-01 
3.130000000000e+01 5.660556043336e-01 
3.130000000000e+01 5.660556043336e-01 
3.132500000000e+01 5.630986129391e-01 
3.132500000000e+01 5.630986129391e-01 
3.132500000000e+01 5.630986129391e-01 
3.132500000000e+01 5.630986129391e-01 
3.132500000000e+01 5.630986129391e-01 
3.135000000000e+01 5.602075233904e-01 
3.135000000000e+01 5.602075233904e-01 
3.135000000000e+01 5.602075233904e-01 
3.135000000000e+01 5.602075233904e-01 
3.135000000000e+01 5.602075233904e-01 
3.137500000000e+01 5.573798512060e-01 
3.137500000000e+01 5.573798512060e-01 
3.137500000000e+01 5.573798512060e-01 
3.137500000000e+01 5.573798512060e-01 
3.137500000000e+01 5.573798512060e-01 
3.140000000000e+01 5.546132415581e-01 
3.140000000000e+01 5.546132415581e-01 
3.140000000000e+01 5.546132415581e-01 
3.140000000000e+01 5.546132415581e-01 
3.140000000000e+01 5.546132415581e-01 
3.142500000000e+01 5.519054607414e-01 
3.142500000000e+01 5.519054607414e-01 
3.142500000000e+01 5.519054607414e-01 
3.142500000000e+01 5.519054607414e-01 
3.142500000000e+01 5.519054607414e-01 
3.145000000000e+01 5.492543883110e-01 
3.145000000000e+01 5.492543883110e-01 
3.145000000000e+01 5.492543883110e-01 
3.145000000000e+01 5.492543883110e-01 
3.145000000000e+01 5.492543883110e-01 
3.147500000000e+01 5.466580098318e-01 
3.147500000000e+01 5.466580098318e-01 
3.147500000000e+01 5.466580098318e-01 
3.147500000000e+01 5.466580098318e-01 
3.147500000000e+01 5.466580098318e-01 
3.150000000000e+01 5.441144101810e-01 
3.150000000000e+01 5.441144101810e-01 
3.150000000000e+01 5.441144101810e-01 
3.150000000000e+01 5.441144101810e-01 
3.150000000000e+01 5.441144101810e-01 
3.152500000000e+01 5.416217673588e-01 
3.152500000000e+01 5.416217673588e-01 
3.152500000000e+01 5.416217673588e-01 
3.152500000000e+01 5.416217673588e-01 
3.152500000000e+01 5.416217673588e-01 
3.155000000000e+01 5.391783467591e-01 
3.155000000000e+01 5.391783467591e-01 
3.155000000000e+01 5.391783467591e-01 
3.155000000000e+01 5.391783467591e-01 
3.155000000000e+01 5.391783467591e-01 
3.157500000000e+01 5.367824958643e-01 
3.157500000000e+01 5.367824958643e-01 
3.157500000000e+01 5.367824958643e-01 
3.157500000000e+01 5.367824958643e-01 
3.157500000000e+01 5.367824958643e-01 
3.160000000000e+01 5.344326393247e-01 
3.160000000000e+01 5.344326393247e-01 
3.160000000000e+01 5.344326393247e-01 
3.160000000000e+01 5.344326393247e-01 
3.160000000000e+01 5.344326393247e-01 
3.162500000000e+01 5.321272743928e-01 
3.162500000000e+01 5.321272743928e-01 
3.162500000000e+01 5.321272743928e-01 
3.162500000000e+01 5.321272743928e-01 
3.162500000000e+01 5.321272743928e-01 
3.165000000000e+01 5.298649666811e-01 
3.165000000000e+01 5.298649666811e-01 
3.165000000000e+01 5.298649666811e-01 
3.165000000000e+01 5.298649666811e-01 
3.165000000000e+01 5.298649666811e-01 
3.167500000000e+01 5.276443462180e-01 
3.167500000000e+01 5.276443462180e-01 
3.167500000000e+01 5.276443462180e-01 
3.167500000000e+01 5.276443462180e-01 
3.167500000000e+01 5.276443462180e-01 
3.170000000000e+01 5.254641037767e-01 
3.170000000000e+01 5.254641037767e-01 
3.170000000000e+01 5.254641037767e-01 
3.170000000000e+01 5.254641037767e-01 
3.170000000000e+01 5.254641037767e-01 
3.172500000000e+01 5.233229874560e-01 
3.172500000000e+01 5.233229874560e-01 
3.172500000000e+01 5.233229874560e-01 
3.172500000000e+01 5.233229874560e-01 
3.172500000000e+01 5.233229874560e-01 
3.175000000000e+01 5.212197994921e-01 
3.175000000000e+01 5.212197994921e-01 
3.175000000000e+01 5.212197994921e-01 
3.175000000000e+01 5.212197994921e-01 
3.175000000000e+01 5.212197994921e-01 
3.177500000000e+01 5.191533932842e-01 
3.177500000000e+01 5.191533932842e-01 
3.177500000000e+01 5.191533932842e-01 
3.177500000000e+01 5.191533932842e-01 
3.177500000000e+01 5.191533932842e-01 
3.180000000000e+01 5.171226706164e-01 
3.180000000000e+01 5.171226706164e-01 
3.180000000000e+01 5.171226706164e-01 
3.180000000000e+01 5.171226706164e-01 
3.180000000000e+01 5.171226706164e-01 
3.182500000000e+01 5.151265790614e-01 
3.182500000000e+01 5.151265790614e-01 
3.182500000000e+01 5.151265790614e-01 
3.182500000000e+01 5.151265790614e-01 
3.182500000000e+01 5.151265790614e-01 
3.185000000000e+01 5.131641095520e-01 
3.185000000000e+01 5.131641095520e-01 
3.185000000000e+01 5.131641095520e-01 
3.185000000000e+01 5.131641095520e-01 
3.185000000000e+01 5.131641095520e-01 
3.187500000000e+01 5.112342941078e-01 
3.187500000000e+01 5.112342941078e-01 
3.187500000000e+01 5.112342941078e-01 
3.187500000000e+01 5.112342941078e-01 
3.187500000000e+01 5.112342941078e-01 
3.190000000000e+01 5.093362037054e-01 
3.190000000000e+01 5.093362037054e-01 
3.190000000000e+01 5.093362037054e-01 
3.190000000000e+01 5.093362037054e-01 
3.190000000000e+01 5.093362037054e-01 
3.192500000000e+01 5.074689462822e-01 
3.192500000000e+01 5.074689462822e-01 
3.192500000000e+01 5.074689462822e-01 
3.192500000000e+01 5.074689462822e-01 
3.192500000000e+01 5.074689462822e-01 
3.195000000000e+01 5.056316648631e-01 
3.195000000000e+01 5.056316648631e-01 
3.195000000000e+01 5.056316648631e-01 
3.195000000000e+01 5.056316648631e-01 
3.195000000000e+01 5.056316648631e-01 
3.197500000000e+01 5.038235358020e-01 
3.197500000000e+01 5.038235358020e-01 
3.197500000000e+01 5.038235358020e-01 
3.197500000000e+01 5.038235358020e-01 
3.197500000000e+01 5.038235358020e-01 
3.200000000000e+01 5.015777854804e-01 
3.200000000000e+01 5.015800611930e-01 
3.200000000000e+01 5.015811974398e-01 
3.200000000000e+01 5.015789238729e-01 
3.200000000000e+01 5.015823326121e-01 
3.272804381228e+01 4.592985007127e-01 
3.272904415457e+01 4.592495576179e-01 
3.273004449685e+01 4.592006364924e-01 
3.273104483913e+01 4.591517373196e-01 
3.273204518142e+01 4.591028600829e-01 
3.345608762457e+01 4.297815065507e-01 
3.345808830914e+01 4.297105888001e-01 
3.346008899370e+01 4.296397239609e-01 
3.346208967827e+01 4.295689119648e-01 
3.346409036284e+01 4.294981527440e-01 
3.418413143685e+01 4.073008215101e-01 
3.418713246370e+01 4.072181688564e-01 
3.419013349055e+01 4.071355933230e-01 
3.419313451740e+01 4.070530947850e-01 
3.419613554425e+01 4.069706731176e-01 
3.491217524914e+01 3.893775946389e-01 
3.491617661827e+01 3.892883454023e-01 
3.492017798741e+01 3.891991911721e-01 
3.492417935654e+01 3.891101317720e-01 
3.492818072567e+01 3.890211670265e-01 
3.564021906142e+01 3.746017895271e-01 
3.564522077284e+01 3.745087543041e-01 
3.565022248426e+01 3.744158272200e-01 
3.565522419567e+01 3.743230080556e-01 
3.566022590709e+01 3.742302965926e-01 
 TITLE = "Profiles along polylines"
 VARIABLES = "DIST" "SATURATION1" 
 ZONE T="TIME=1.797693134862e+308"
6.402190614222e-01 1.000000000000e+00 
6.452207728395e-01 1.000000000000e+00 
6.502224842569e-01 1.000000000000e+00 
6.552241956743e-01 1.000000000000e+00 
6.602259070917e-01 1.000000000000e+00 
1.618878426041e+00 1.000000000000e+00 
1.623713413745e+00 1.000000000000e+00 
1.628548401448e+00 1.000000000000e+00 
1.633383389152e+00 1.000000000000e+00 
1.638218376855e+00 1.000000000000e+00 
2.597537790660e+00 1.000000000000e+00 
2.602206054649e+00 1.000000000000e+00 
2.606874318639e+00 1.000000000000e+00 
2.611542582628e+00 1.000000000000e+00 
2.616210846618e+00 1.000000000000e+00 
3.576197155280e+00 1.000000000000e+00 
3.580698695555e+00 1.000000000000e+00 
3.585200235831e+00 1.000000000000e+00 
3.589701776106e+00 1.000000000000e+00 
3.594203316382e+00 1.000000000000e+00 
4.554856519899e+00 1.000000000000e+00 
4.559191336461e+00 1.000000000000e+00 
4.563526153022e+00 1.000000000000e+00 
4.567860969584e+00 1.000000000000e+00 
4.572195786146e+00 1.000000000000e+00 
5.533515884517e+00 1.000000000000e+00 
5.537683977365e+00 1.000000000000e+00 
5.541852070213e+00 1.000000000000e+00 
5.546020163061e+00 1.000000000000e+00 
5.550188255909e+00 1.000000000000e+00 
6.512175249136e+00 1.000000000000e+00 
6.516176618270e+00 1.000000000000e+00 
6.520177987404e+00 1.000000000000e+00 
6.524179356537e+00 1.000000000000e+00 
6.528180725671e+00 1.000000000000e+00 
7.490834613754e+00 1.000000000000e+00 
7.494669259174e+00 1.000000000000e+00 
7.498503904594e+00 1.000000000000e+00 
7.502338550014e+00 1.000000000000e+00 
7.506173195434e+00 1.000000000000e+00 
8.469493978373e+00 1.000000000000e+00 
8.473161900079e+00 1.000000000000e+00 
8.476829821785e+00 1.000000000000e+00 
8.480497743491e+00 1.000000000000e+00 
8.484165665197e+00 1.000000000000e+00 
9.448153342988e+00 1.000000000000e+00 
9.451654540981e+00 1.000000000000e+00 
9.455155738973e+00 1.000000000000e+00 
9.458656936965e+00 1.000000000000e+00 
9.462158134957e+00 1.000000000000e+00 
1.042681270760e+01 1.000000000000e+00 
1.043014718188e+01 1.000000000000e+00 
1.043348165616e+01 1.000000000000e+00 
1.043681613044e+01 1.000000000000e+00 
1.044015060472e+01 1.000000000000e+00 
1.140547207222e+01 1.000000000000e+00 
1.140863982278e+01 1.000000000000e+00 
1.141180757335e+01 1.000000000000e+00 
1.141497532391e+01 1.000000000000e+00 
1.141814307448e+01 1.000000000000e+00 
1.238413143684e+01 1.000000000000e+00 
1.238713246369e+01 1.000000000000e+00 
1.239013349054e+01 1.000000000000e+00 
1.239313451739e+01 1.000000000000e+00 
1.239613554424e+01 1.000000000000e+00 
1.336279080145e+01 1.000000000000e+00 
1.336562510459e+01 1.000000000000e+00 
1.336845940772e+01 1.000000000000e+00 
1.337129371086e+01 1.000000000000e+00 
1.337412801400e+01 1.000000000000e+00 
1.434145016607e+01 1.000000000000e+00 
1.434411774549e+01 1.000000000000e+00 
1.434678532491e+01 1.000000000000e+00 
1.434945290433e+01 1.000000000000e+00 
1.435212048376e+01 1.000000000000e+00 
1.532010953068e+01 1.000000000000e+00 
1.532261038639e+01 1.000000000000e+00 
1.532511124210e+01 1.000000000000e+00 
1.532761209781e+01 1.000000000000e+00 
1.533011295352e+01 1.000000000000e+00 
1.629876889530e+01 1.000000000000e+00 
1.630110302730e+01 1.000000000000e+00 
1.630343715929e+01 1.000000000000e+00 
1.630577129129e+01 1.000000000000e+00 
1.630810542328e+01 1.000000000000e+00 
1.727742825992e+01 1.000000000000e+00 
1.727959566821e+01 1.000000000000e+00 
1.728176307649e+01 1.000000000000e+00 
1.728393048477e+01 1.000000000000e+00 
1.728609789305e+01 1.000000000000e+00 
1.825608762455e+01 1.000000000000e+00 
1.825808830911e+01 1.000000000000e+00 
1.826008899368e+01 1.000000000000e+00 
1.826208967825e+01 1.000000000000e+00 
1.826409036281e+01 1.000000000000e+00 
1.923474698917e+01 1.000000000000e+00 
1.923658095002e+01 1.000000000000e+00 
1.923841491087e+01 1.000000000000e+00 
1.924024887173e+01 1.000000000000e+00 
1.924208283258e+01 1.000000000000e+00 
2.021340635379e+01 1.000000000000e+00 
2.021507359093e+01 1.000000000000e+00 
2.021674082807e+01 1.000000000000e+00 
2.021840806521e+01 1.000000000000e+00 
2.022007530234e+01 1.000000000000e+00 
2.119206571841e+01 1.000000000000e+00 
2.119356623183e+01 1.000000000000e+00 
2.119506674526e+01 1.000000000000e+00 
2.119656725869e+01 1.000000000000e+00 
2.119806777211e+01 1.000000000000e+00 
2.217072508303e+01 1.000000000000e+00 
2.217205887274e+01 1.000000000000e+00 
2.217339266245e+01 1.000000000000e+00 
2.217472645216e+01 1.000000000000e+00 
2.217606024188e+01 1.000000000000e+00 
2.314938444765e+01 1.000000000000e+00 
2.315055151365e+01 1.000000000000e+00 
2.315171857965e+01 1.000000000000e+00 
2.315288564564e+01 1.000000000000e+00 
2.315405271164e+01 1.000000000000e+00 
2.412804381227e+01 1.000000000000e+00 
2.412904415456e+01 1.000000000000e+00 
2.413004449684e+01 1.000000000000e+00 
2.413104483912e+01 1.000000000000e+00 
2.413204518141e+01 1.000000000000e+00 
2.510670317689e+01 1.000000000000e+00 
2.510753679546e+01 1.000000000000e+00 
2.510837041403e+01 1.000000000000e+00 
2.510920403260e+01 1.000000000000e+00 
2.511003765117e+01 1.000000000000e+00 
2.608536254152e+01 1.000000000000e+00 
2.608602943637e+01 1.000000000000e+00 
2.608669633123e+01 1.000000000000e+00 
2.608736322608e+01 1.000000000000e+00 
2.608803012094e+01 1.000000000000e+00 
2.706402190614e+01 1.000000000000e+00 
2.706452207728e+01 1.000000000000e+00 
2.706502224842e+01 1.000000000000e+00 
2.706552241956e+01 1.000000000000e+00 
2.706602259070e+01 1.000000000000e+00 
2.804268127076e+01 1.000000000000e+00 
2.804301471819e+01 1.000000000000e+00 
2.804334816561e+01 1.000000000000e+00 
2.804368161304e+01 1.000000000000e+00 
2.804401506047e+01 1.000000000000e+00 
2.902134063538e+01 1.000000000000e+00 
2.902150735909e+01 1.000000000000e+00 
2.902167408281e+01 1.000000000000e+00 
2.902184080652e+01 1.000000000000e+00 
2.902200753023e+01 1.000000000000e+00 
3.000000000000e+01 1.000000000000e+00 
3.000000000000e+01 1.000000000000e+00 
3.000000000000e+01 1.000000000000e+00 
3.000000000000e+01 1.000000000000e+00 
3.000000000000e+01 1.000000000000e+00 
3.002500000000e+01 1.000000000000e+00 
3.002500000000e+01 1.000000000000e+00 
3.002500000000e+01 1.000000000000e+00 
3.002500000000e+01 1.000000000000e+00 
3.002500000000e+01 1.000000000000e+00 
3.005000000000e+01 1.000000000000e+00 
3.005000000000e+01 1.000000000000e+00 
3.005000000000e+01 1.000000000000e+00 
3.005000000000e+01 1.000000000000e+00 
3.005000000000e+01 1.000000000000e+00 
3.007500000000e+01 1.000000000000e+00 
3.007500000000e+01 1.000000000000e+00 
3.007500000000e+01 1.000000000000e+00 
3.007500000000e+01 1.000000000000e+00 
3.007500000000e+01 1.000000000000e+00 
3.010000000000e+01 1.000000000000e+00 
3.010000000000e+01 1.000000000000e+00 
3.010000000000e+01 1.000000000000e+00 
3.010000000000e+01 1.000000000000e+00 
3.010000000000e+01 1.000000000000e+00 
3.012500000000e+01 1.000000000000e+00 
3.012500000000e+01 1.000000000000e+00 
3.012500000000e+01 1.000000000000e+00 
3.012500000000e+01 1.000000000000e+00 
3.012500000000e+01 1.000000000000e+00 
3.015000000000e+01 1.000000000000e+00 
3.015000000000e+01 1.000000000000e+00 
3.015000000000e+01 1.000000000000e+00 