 TITLE = "Profiles along polylines"
 VARIABLES = "DIST" "SATURATION1" 
 ZONE T="TIME=0.000000000000e+00"
1.288340704013e+01 1.000000000000e+00 
1.294332057990e+01 1.000000000000e+00 
1.300215826751e+01 1.000000000000e+00 
1.304214048603e+01 1.000000000000e+00 
1.308212270454e+01 1.000000000000e+00 
1.345396013879e+01 1.000000000000e+00 
1.351187656057e+01 1.000000000000e+00 
1.356875299193e+01 1.000000000000e+00 
1.360740246983e+01 1.000000000000e+00 
1.364605194772e+01 1.000000000000e+00 
1.402451323745e+01 1.000000000000e+00 
1.408043254124e+01 1.000000000000e+00 
1.413534771634e+01 1.000000000000e+00 
1.417266445362e+01 1.000000000000e+00 
1.420998119091e+01 1.000000000000e+00 
1.459506633612e+01 1.000000000000e+00 
1.464898852191e+01 1.000000000000e+00 
1.470194244076e+01 1.000000000000e+00 
1.473792643742e+01 1.000000000000e+00 
1.477391043409e+01 1.000000000000e+00 
1.516561943478e+01 1.000000000000e+00 
1.521754450258e+01 1.000000000000e+00 
1.526853716518e+01 1.000000000000e+00 
1.530318842122e+01 1.000000000000e+00 
1.533783967727e+01 1.000000000000e+00 
1.573617253344e+01 1.000000000000e+00 
1.578610048325e+01 1.000000000000e+00 
1.583513188959e+01 1.000000000000e+00 
1.586845040502e+01 1.000000000000e+00 
1.590176892045e+01 1.000000000000e+00 
1.630672563210e+01 1.000000000000e+00 
1.635465646392e+01 1.000000000000e+00 
1.640172661401e+01 1.000000000000e+00 
1.643371238882e+01 1.000000000000e+00 
1.646569816363e+01 1.000000000000e+00 
1.687727873076e+01 1.000000000000e+00 
1.692321244459e+01 1.000000000000e+00 
1.696832133842e+01 1.000000000000e+00 
1.699897437262e+01 1.000000000000e+00 
1.702962740682e+01 1.000000000000e+00 
1.744783182943e+01 1.000000000000e+00 
1.749176842526e+01 1.000000000000e+00 
1.753491606284e+01 1.000000000000e+00 
1.756423635642e+01 1.000000000000e+00 
1.759355665000e+01 1.000000000000e+00 
1.801838492809e+01 1.000000000000e+00 
1.806032440593e+01 1.000000000000e+00 
1.810151078726e+01 1.000000000000e+00 
1.812949834022e+01 1.000000000000e+00 
1.815748589318e+01 1.000000000000e+00 
1.858893802675e+01 1.000000000000e+00 
1.862888038660e+01 1.000000000000e+00 
1.866810551167e+01 1.000000000000e+00 
1.869476032401e+01 1.000000000000e+00 
1.872141513636e+01 1.000000000000e+00 
1.915949112541e+01 1.000000000000e+00 
1.919743636727e+01 1.000000000000e+00 
1.923470023609e+01 1.000000000000e+00 
1.926002230781e+01 1.000000000000e+00 
1.928534437954e+01 1.000000000000e+00 
1.973004422407e+01 1.000000000000e+00 
1.976599234794e+01 1.000000000000e+00 
1.980129496050e+01 1.000000000000e+00 
1.982528429161e+01 1.000000000000e+00 
1.984927362272e+01 1.000000000000e+00 
2.030059732273e+01 1.000000000000e+00 
2.033454832860e+01 1.000000000000e+00 
2.036788968492e+01 1.000000000000e+00 
2.039054627541e+01 1.000000000000e+00 
2.041320286590e+01 1.000000000000e+00 
2.087115042139e+01 1.000000000000e+00 
2.090310430927e+01 1.000000000000e+00 
2.093448440933e+01 1.000000000000e+00 
2.095580825921e+01 1.000000000000e+00 
2.097713210908e+01 1.000000000000e+00 
2.144170352006e+01 1.000000000000e+00 
2.147166028994e+01 1.000000000000e+00 
2.150107913375e+01 1.000000000000e+00 
2.152107024300e+01 1.000000000000e+00 
2.154106135226e+01 1.000000000000e+00 
2.201225661872e+01 1.000000000000e+00 
2.204021627061e+01 1.000000000000e+00 
2.206767385816e+01 1.000000000000e+00 
2.208633222680e+01 1.000000000000e+00 
2.210499059544e+01 1.000000000000e+00 
2.258280971738e+01 1.000000000000e+00 
2.260877225128e+01 1.000000000000e+00 
2.263426858258e+01 1.000000000000e+00 
2.265159421060e+01 1.000000000000e+00 
2.266891983863e+01 1.000000000000e+00 
2.315336281604e+01 1.000000000000e+00 
2.317732823195e+01 1.000000000000e+00 
2.320086330700e+01 1.000000000000e+00 
2.321685619440e+01 1.000000000000e+00 
2.323284908181e+01 1.000000000000e+00 
2.372391591471e+01 1.000000000000e+00 
2.374588421262e+01 1.000000000000e+00 
2.376745803141e+01 1.000000000000e+00 
2.378211817820e+01 1.000000000000e+00 
2.379677832499e+01 1.000000000000e+00 
2.429446901337e+01 1.000000000000e+00 
2.431444019329e+01 1.000000000000e+00 
2.433405275583e+01 1.000000000000e+00 
2.434738016200e+01 1.000000000000e+00 
2.436070756817e+01 1.000000000000e+00 
2.486502211203e+01 1.000000000000e+00 
2.488299617397e+01 1.000000000000e+00 
2.490064748025e+01 1.000000000000e+00 
2.491264214580e+01 1.000000000000e+00 
2.492463681136e+01 1.000000000000e+00 
2.543557521070e+01 1.000000000000e+00 
2.545155215464e+01 1.000000000000e+00 
2.546724220466e+01 1.000000000000e+00 
2.547790412960e+01 1.000000000000e+00 
2.548856605454e+01 1.000000000000e+00 
2.600612830936e+01 1.000000000000e+00 
2.602010813531e+01 1.000000000000e+00 
2.603383692908e+01 1.000000000000e+00 
2.604316611340e+01 1.000000000000e+00 
2.605249529772e+01 1.000000000000e+00 
2.657668140802e+01 1.000000000000e+00 
2.658866411598e+01 1.000000000000e+00 
2.660043165350e+01 1.000000000000e+00 
2.660842809720e+01 1.000000000000e+00 
2.661642454090e+01 1.000000000000e+00 
2.714723450668e+01 1.000000000000e+00 
2.715722009665e+01 1.000000000000e+00 
2.716702637792e+01 1.000000000000e+00 
2.717369008100e+01 1.000000000000e+00 
2.718035378409e+01 1.000000000000e+00 
2.771778760535e+01 1.000000000000e+00 
2.772577607732e+01 1.000000000000e+00 
2.773362110233e+01 1.000000000000e+00 
2.773895206480e+01 1.000000000000e+00 
2.774428302727e+01 1.000000000000e+00 
2.828834070401e+01 1.000000000000e+00 
2.829433205799e+01 1.000000000000e+00 
2.830021582675e+01 1.000000000000e+00 
2.830421404860e+01 1.000000000000e+00 
2.830821227045e+01 1.000000000000e+00 
2.885889380267e+01 1.000000000000e+00 
2.886288803866e+01 1.000000000000e+00 
2.886681055117e+01 1.000000000000e+00 
2.886947603240e+01 1.000000000000e+00 
2.887214151364e+01 1.000000000000e+00 
2.942944690134e+01 1.000000000000e+00 
2.943144401933e+01 1.000000000000e+00 
2.943340527558e+01 1.000000000000e+00 
2.943473801620e+01 1.000000000000e+00 
2.943607075682e+01 1.000000000000e+00 
3.000000000000e+01 1.000000000000e+00 
3.000000000000e+01 1.000000000000e+00 
3.000000000000e+01 1.000000000000e+00 
3.000000000000e+01 1.000000000000e+00 
3.000000000000e+01 1.000000000000e+00 
3.002500000000e+01 9.876207709446e-01 
3.002500000000e+01 9.876207709446e-01 
3.002500000000e+01 9.876207709446e-01 
3.002500000000e+01 9.876207709446e-01 
3.002500000000e+01 9.876207709446e-01 
3.005000000000e+01 9.697756439369e-01 
3.005000000000e+01 9.697756439369e-01 
3.005000000000e+01 9.697756439369e-01 
3.005000000000e+01 9.697756439369e-01 
3.005000000000e+01 9.697756439369e-01 
3.007500000000e+01 9.507134089444e-01 
3.007500000000e+01 9.507134089444e-01 
3.007500000000e+01 9.507134089444e-01 
3.007500000000e+01 9.507134089444e-01 
3.007500000000e+01 9.507134089444e-01 
3.010000000000e+01 9.315621650298e-01 
3.010000000000e+01 9.315621650298e-01 
3.010000000000e+01 9.315621650298e-01 
3.010000000000e+01 9.315621650298e-01 
3.010000000000e+01 9.315621650298e-01 
3.012500000000e+01 9.128758324042e-01 
3.012500000000e+01 9.128758324042e-01 
3.012500000000e+01 9.128758324042e-01 
3.012500000000e+01 9.128758324042e-01 
3.012500000000e+01 9.128758324042e-01 
3.015000000000e+01 8.949248043380e-01 
3.015000000000e+01 8.949248043380e-01 
3.015000000000e+01 8.949248043380e-01 
3.015000000000e+01 8.949248043380e-01 
3.015000000000e+01 8.949248043380e-01 
3.017500000000e+01 8.778290027968e-01 
3.017500000000e+01 8.778290027968e-01 
3.017500000000e+01 8.778290027968e-01 
3.017500000000e+01 8.778290027968e-01 
3.017500000000e+01 8.778290027968e-01 
3.020000000000e+01 8.616255702900e-01 
3.020000000000e+01 8.616255702900e-01 
3.020000000000e+01 8.616255702900e-01 
3.020000000000e+01 8.616255702900e-01 
3.020000000000e+01 8.616255702900e-01 
3.022500000000e+01 8.463059583920e-01 
3.022500000000e+01 8.463059583920e-01 
3.022500000000e+01 8.463059583920e-01 
3.022500000000e+01 8.463059583920e-01 
3.022500000000e+01 8.463059583920e-01 
3.025000000000e+01 8.318370344398e-01 
3.025000000000e+01 8.318370344398e-01 
3.025000000000e+01 8.318370344398e-01 
3.025000000000e+01 8.318370344398e-01 
3.025000000000e+01 8.318370344398e-01 
3.027500000000e+01 8.181733156316e-01 
3.027500000000e+01 8.181733156316e-01 
3.027500000000e+01 8.181733156316e-01 
3.027500000000e+01 8.181733156316e-01 
3.027500000000e+01 8.181733156316e-01 
3.030000000000e+01 8.052640970350e-01 
3.030000000000e+01 8.052640970350e-01 
3.030000000000e+01 8.052640970350e-01 
3.030000000000e+01 8.052640970350e-01 
3.030000000000e+01 8.052640970350e-01 
3.032500000000e+01 7.930575753856e-01 
3.032500000000e+01 7.930575753856e-01 
3.032500000000e+01 7.930575753856e-01 
3.032500000000e+01 7.930575753856e-01 
3.032500000000e+01 7.930575753856e-01 
3.035000000000e+01 7.815031815402e-01 
3.035000000000e+01 7.815031815402e-01 
3.035000000000e+01 7.815031815402e-01 
3.035000000000e+01 7.815031815402e-01 
3.035000000000e+01 7.815031815402e-01 
3.037500000000e+01 7.705528376764e-01 
3.037500000000e+01 7.705528376764e-01 
3.037500000000e+01 7.705528376764e-01 
3.037500000000e+01 7.705528376764e-01 
3.037500000000e+01 7.705528376764e-01 
3.040000000000e+01 7.601615689674e-01 
3.040000000000e+01 7.601615689674e-01 
3.040000000000e+01 7.601615689674e-01 
3.040000000000e+01 7.601615689674e-01 
3.040000000000e+01 7.601615689674e-01 
3.042500000000e+01 7.502877306002e-01 
3.042500000000e+01 7.502877306002e-01 
3.042500000000e+01 7.502877306002e-01 
3.042500000000e+01 7.502877306002e-01 
3.042500000000e+01 7.502877306002e-01 
3.045000000000e+01 7.408930096824e-01 
3.045000000000e+01 7.408930096824e-01 
3.045000000000e+01 7.408930096824e-01 
3.045000000000e+01 7.408930096824e-01 
3.045000000000e+01 7.408930096824e-01 
3.047500000000e+01 7.319422999608e-01 
3.047500000000e+01 7.319422999608e-01 
3.047500000000e+01 7.319422999608e-01 
3.047500000000e+01 7.319422999608e-01 
3.047500000000e+01 7.319422999608e-01 
3.050000000000e+01 7.234035093991e-01 
3.050000000000e+01 7.234035093991e-01 
3.050000000000e+01 7.234035093991e-01 
3.050000000000e+01 7.234035093991e-01 
3.050000000000e+01 7.234035093991e-01 
3.052500000000e+01 7.152473371957e-01 
3.052500000000e+01 7.152473371957e-01 
3.052500000000e+01 7.152473371957e-01 
3.052500000000e+01 7.152473371957e-01 
3.052500000000e+01 7.152473371957e-01 
3.055000000000e+01 7.074470422112e-01 
3.055000000000e+01 7.074470422112e-01 
3.055000000000e+01 7.074470422112e-01 
3.055000000000e+01 7.074470422112e-01 
3.055000000000e+01 7.074470422112e-01 
3.057500000000e+01 6.999782156504e-01 
3.057500000000e+01 6.999782156504e-01 
3.057500000000e+01 6.999782156504e-01 
3.057500000000e+01 6.999782156504e-01 
3.057500000000e+01 6.999782156504e-01 
3.060000000000e+01 6.928185651596e-01 
3.060000000000e+01 6.928185651596e-01 
3.060000000000e+01 6.928185651596e-01 
3.060000000000e+01 6.928185651596e-01 
3.060000000000e+01 6.928185651596e-01 
3.062500000000e+01 6.859477139679e-01 
3.062500000000e+01 6.859477139679e-01 
3.062500000000e+01 6.859477139679e-01 
3.062500000000e+01 6.859477139679e-01 
3.062500000000e+01 6.859477139679e-01 
3.065000000000e+01 6.793470165436e-01 
3.065000000000e+01 6.793470165436e-01 
3.065000000000e+01 6.793470165436e-01 
3.065000000000e+01 6.793470165436e-01 
3.065000000000e+01 6.793470165436e-01 
3.067500000000e+01 6.729993909360e-01 
3.067500000000e+01 6.729993909360e-01 
3.067500000000e+01 6.729993909360e-01 
3.067500000000e+01 6.729993909360e-01 
3.067500000000e+01 6.729993909360e-01 
3.070000000000e+01 6.668891672206e-01 
3.070000000000e+01 6.668891672206e-01 
3.070000000000e+01 6.668891672206e-01 
3.070000000000e+01 6.668891672206e-01 
3.070000000000e+01 6.668891672206e-01 
3.072500000000e+01 6.610019510587e-01 
3.072500000000e+01 6.610019510587e-01 
3.072500000000e+01 6.610019510587e-01 
3.072500000000e+01 6.610019510587e-01 
3.072500000000e+01 6.610019510587e-01 
3.075000000000e+01 6.553245011865e-01 
3.075000000000e+01 6.553245011865e-01 
3.075000000000e+01 6.553245011865e-01 
3.075000000000e+01 6.553245011865e-01 
3.075000000000e+01 6.553245011865e-01 
3.077500000000e+01 6.498446195878e-01 
3.077500000000e+01 6.498446195878e-01 
3.077500000000e+01 6.498446195878e-01 
3.077500000000e+01 6.498446195878e-01 
3.077500000000e+01 6.498446195878e-01 
3.080000000000e+01 6.445510531188e-01 
3.080000000000e+01 6.445510531188e-01 
3.080000000000e+01 6.445510531188e-01 
3.080000000000e+01 6.445510531188e-01 
3.080000000000e+01 6.445510531188e-01 
3.082500000000e+01 6.394334054150e-01 
3.082500000000e+01 6.394334054150e-01 
3.082500000000e+01 6.394334054150e-01 
3.082500000000e+01 6.394334054150e-01 
3.082500000000e+01 6.394334054150e-01 
3.085000000000e+01 6.344820579917e-01 
3.085000000000e+01 6.344820579917e-01 
3.085000000000e+01 6.344820579917e-01 
3.085000000000e+01 6.344820579917e-01 
3.085000000000e+01 6.344820579917e-01 
3.087500000000e+01 6.296880995462e-01 
3.087500000000e+01 6.296880995462e-01 
3.087500000000e+01 6.296880995462e-01 
3.087500000000e+01 6.296880995462e-01 
3.087500000000e+01 6.296880995462e-01 
3.090000000000e+01 6.250432625624e-01 
3.090000000000e+01 6.250432625624e-01 
3.090000000000e+01 6.250432625624e-01 
3.090000000000e+01 6.250432625624e-01 
3.090000000000e+01 6.250432625624e-01 
3.092500000000e+01 6.205398664126e-01 
3.092500000000e+01 6.205398664126e-01 
3.092500000000e+01 6.205398664126e-01 
3.092500000000e+01 6.205398664126e-01 
3.092500000000e+01 6.205398664126e-01 
3.095000000000e+01 6.161707662369e-01 
3.095000000000e+01 6.161707662369e-01 
3.095000000000e+01 6.161707662369e-01 
3.095000000000e+01 6.161707662369e-01 
3.095000000000e+01 6.161707662369e-01 
3.097500000000e+01 6.119293069613e-01 
3.097500000000e+01 6.119293069613e-01 
3.097500000000e+01 6.119293069613e-01 
3.097500000000e+01 6.119293069613e-01 
3.097500000000e+01 6.119293069613e-01 
3.100000000000e+01 6.078092818871e-01 
3.100000000000e+01 6.078092818871e-01 
3.100000000000e+01 6.078092818871e-01 
3.100000000000e+01 6.078092818871e-01 
3.100000000000e+01 6.078092818871e-01 
3.102500000000e+01 6.038048953494e-01 
3.102500000000e+01 6.038048953494e-01 
3.102500000000e+01 6.038048953494e-01 
3.102500000000e+01 6.038048953494e-01 
3.102500000000e+01 6.038048953494e-01 
3.105000000000e+01 5.999107290013e-01 
3.105000000000e+01 5.999107290013e-01 
3.105000000000e+01 5.999107290013e-01 
3.105000000000e+01 5.999107290013e-01 
3.105000000000e+01 5.999107290013e-01 
3.107500000000e+01 5.961217113309e-01 
3.107500000000e+01 5.961217113309e-01 
3.107500000000e+01 5.961217113309e-01 
3.107500000000e+01 5.961217113309e-01 
3.107500000000e+01 5.961217113309e-01 
3.110000000000e+01 5.924330900627e-01 
3.110000000000e+01 5.924330900627e-01 
3.110000000000e+01 5.924330900627e-01 
3.110000000000e+01 5.924330900627e-01 
3.110000000000e+01 5.924330900627e-01 
3.112500000000e+01 5.888404071392e-01 
3.112500000000e+01 5.888404071392e-01 
3.112500000000e+01 5.888404071392e-01 
3.112500000000e+01 5.888404071392e-01 
3.112500000000e+01 5.888404071392e-01 
3.115000000000e+01 5.853394760078e-01 
3.115000000000e+01 5.853394760078e-01 
3.115000000000e+01 5.853394760078e-01 
3.115000000000e+01 5.853394760078e-01 
3.115000000000e+01 5.853394760078e-01 
3.117500000000e+01 5.819263609758e-01 
3.117500000000e+01 5.819263609758e-01 
3.117500000000e+01 5.819263609758e-01 
3.117500000000e+01 5.819263609758e-01 
3.117500000000e+01 5.819263609758e-01 
3.120000000000e+01 5.785973584173e-01 
3.120000000000e+01 5.785973584173e-01 
3.120000000000e+01 5.785973584173e-01 
3.120000000000e+01 5.785973584173e-01 
3.120000000000e+01 5.785973584173e-01 
3.122500000000e+01 5.753489796460e-01 
3.122500000000e+01 5.753489796460e-01 
3.122500000000e+01 5.753489796460e-01 
3.122500000000e+01 5.753489796460e-01 
3.122500000000e+01 5.753489796460e-01 
3.125000000000e+01 5.721779352840e-01 
3.125000000000e+01 5.721779352840e-01 
3.125000000000e+01 5.721779352840e-01 
3.125000000000e+01 5.721779352840e-01 
3.125000000000e+01 5.721779352840e-01 
3.127500000000e+01 5.690811209785e-01 
3.127500000000e+01 5.690811209785e-01 
3.127500000000e+01 5.690811209785e-01 
3.127500000000e+01 5.690811209785e-01 
3.127500000000e+01 5.690811209785e-01 
3.130000000000e+01 5.660556043336e-01 
3.130000000000e+01 5.660556043336e-01 
3.130000000000e+01 5.660556043336e-01 
3.130000000000e+01 5.660556043336e-01 
3.130000000000e+01 5.660556043336e-01 
3.132500000000e+01 5.630986129391e-01 
3.132500000000e+01 5.630986129391e-01 
3.132500000000e+01 5.630986129391e-01 
3.132500000000e+01 5.630986129391e-01 
3.132500000000e+01 5.630986129391e-01 
3.135000000000e+01 5.602075233904e-01 
3.135000000000e+01 5.602075233904e-01 
3.135000000000e+01 5.602075233904e-01 
3.135000000000e+01 5.602075233904e-01 
3.135000000000e+01 5.602075233904e-01 
3.137500000000e+01 5.573798512060e-01 
3.137500000000e+01 5.573798512060e-01 
3.137500000000e+01 5.573798512060e-01 
3.137500000000e+01 5.573798512060e-01 
3.137500000000e+01 5.573798512060e-01 
3.140000000000e+01 5.546132415581e-01 
3.140000000000e+01 5.546132415581e-01 
3.140000000000e+01 5.546132415581e-01 
3.140000000000e+01 5.546132415581e-01 
3.140000000000e+01 5.546132415581e-01 
3.142500000000e+01 5.519054607414e-01 
3.142500000000e+01 5.519054607414e-01 
3.142500000000e+01 5.519054607414e-01 
3.142500000000e+01 5.519054607414e-01 
3.142500000000e+01 5.519054607414e-01 
3.145000000000e+01 5.492543883110e-01 
3.145000000000e+01 5.492543883110e-01 
3.145000000000e+01 5.492543883110e-01 
3.145000000000e+01 5.492543883110e-01 
3.145000000000e+01 5.492543883110e-01 
3.147500000000e+01 5.466580098318e-01 
3.147500000000e+01 5.466580098318e-01 
3.147500000000e+01 5.466580098318e-01 
3.147500000000e+01 5.466580098318e-01 
3.147500000000e+01 5.466580098318e-01 
3.150000000000e+01 5.441144101810e-01 
3.150000000000e+01 5.441144101810e-01 
3.150000000000e+01 5.441144101810e-01 
3.150000000000e+01 5.441144101810e-01 
3.150000000000e+01 5.441144101810e-01 
3.152500000000e+01 5.416217673588e-01 
3.152500000000e+01 5.416217673588e-01 
3.152500000000e+01 5.416217673588e-01 
3.152500000000e+01 5.416217673588e-01 
3.152500000000e+01 5.416217673588e-01 
3.155000000000e+01 5.391783467591e-01 
3.155000000000e+01 5.391783467591e-01 
3.155000000000e+01 5.391783467591e-01 
3.155000000000e+01 5.391783467591e-01 
3.155000000000e+01 5.391783467591e-01 
3.157500000000e+01 5.367824958643e-01 
3.157500000000e+01 5.367824958643e-01 
3.157500000000e+01 5.367824958643e-01 
3.157500000000e+01 5.367824958643e-01 
3.157500000000e+01 5.367824958643e-01 
3.160000000000e+01 5.344326393247e-01 
3.160000000000e+01 5.344326393247e-01 
3.160000000000e+01 5.344326393247e-01 
3.160000000000e+01 5.344326393247e-01 
3.160000000000e+01 5.344326393247e-01 
3.162500000000e+01 5.321272743928e-01 
3.162500000000e+01 5.321272743928e-01 
3.162500000000e+01 5.321272743928e-01 
3.162500000000e+01 5.321272743928e-01 
3.162500000000e+01 5.321272743928e-01 
3.165000000000e+01 5.298649666811e-01 
3.165000000000e+01 5.298649666811e-01 
3.165000000000e+01 5.298649666811e-01 
3.165000000000e+01 5.298649666811e-01 
3.165000000000e+01 5.298649666811e-01 
3.167500000000e+01 5.276443462180e-01 
3.167500000000e+01 5.276443462180e-01 
3.167500000000e+01 5.276443462180e-01 
3.167500000000e+01 5.276443462180e-01 
3.167500000000e+01 5.276443462180e-01 
3.170000000000e+01 5.254641037767e-01 
3.170000000000e+01 5.254641037767e-01 
3.170000000000e+01 5.254641037767e-01 
3.170000000000e+01 5.254641037767e-01 
3.170000000000e+01 5.254641037767e-01 
3.172500000000e+01 5.233229874560e-01 
3.172500000000e+01 5.233229874560e-01 
3.172500000000e+01 5.233229874560e-01 
3.172500000000e+01 5.233229874560e-01 
3.172500000000e+01 5.233229874560e-01 
3.175000000000e+01 5.212197994921e-01 
3.175000000000e+01 5.212197994921e-01 
3.175000000000e+01 5.212197994921e-01 
3.175000000000e+01 5.212197994921e-01 
3.175000000000e+01 5.212197994921e-01 
3.177500000000e+01 5.191533932842e-01 
3.177500000000e+01 5.191533932842e-01 
3.177500000000e+01 5.191533932842e-01 
3.177500000000e+01 5.191533932842e-01 
3.177500000000e+01 5.191533932842e-01 
3.180000000000e+01 5.171226706164e-01 
3.180000000000e+01 5.171226706164e-01 
3.180000000000e+01 5.171226706164e-01 
3.180000000000e+01 5.171226706164e-01 
3.180000000000e+01 5.171226706164e-01 
3.182500000000e+01 5.151265790614e-01 
3.182500000000e+01 5.151265790614e-01 
3.182500000000e+01 5.151265790614e-01 
3.182500000000e+01 5.151265790614e-01 
3.182500000000e+01 5.151265790614e-01 
3.185000000000e+01 5.131641095520e-01 
3.185000000000e+01 5.131641095520e-01 
3.185000000000e+01 5.131641095520e-01 
3.185000000000e+01 5.131641095520e-01 
3.185000000000e+01 5.131641095520e-01 
3.187500000000e+01 5.112342941078e-01 
3.187500000000e+01 5.112342941078e-01 
3.187500000000e+01 5.112342941078e-01 
3.187500000000e+01 5.112342941078e-01 
3.187500000000e+01 5.112342941078e-01 
3.190000000000e+01 5.093362037054e-01 
3.190000000000e+01 5.093362037054e-01 
3.190000000000e+01 5.093362037054e-01 
3.190000000000e+01 5.093362037054e-01 
3.190000000000e+01 5.093362037054e-01 
3.192500000000e+01 5.074689462822e-01 
3.192500000000e+01 5.074689462822e-01 
3.192500000000e+01 5.074689462822e-01 
3.192500000000e+01 5.074689462822e-01 
3.192500000000e+01 5.074689462822e-01 
3.195000000000e+01 5.056316648631e-01 
3.195000000000e+01 5.056316648631e-01 
3.195000000000e+01 5.056316648631e-01 
3.195000000000e+01 5.056316648631e-01 
3.195000000000e+01 5.056316648631e-01 
3.197500000000e+01 5.038235358020e-01 
3.197500000000e+01 5.038235358020e-01 
3.197500000000e+01 5.038235358020e-01 
3.197500000000e+01 5.038235358020e-01 
3.197500000000e+01 5.038235358020e-01 
3.200000000000e+01 4.969394999747e-01 
3.200000000000e+01 4.969752510302e-01 
3.200000000000e+01 4.970015358530e-01 
3.200000000000e+01 4.969573794327e-01 
3.200000000000e+01 4.970282826819e-01 
3.517668140803e+01 3.804721395933e-01 
3.518866411598e+01 3.802128280189e-01 
3.520043165350e+01 3.799589425707e-01 
3.520842809721e+01 3.797868490771e-01 
3.521642454091e+01 3.796150901301e-01 
3.835336281605e+01 3.350262951626e-01 
3.837732823196e+01 3.347600590985e-01 
3.840086330700e+01 3.344995985575e-01 
3.841685619441e+01 3.343231621859e-01 
3.843284908182e+01 3.341471571462e-01 
4.153004422408e+01 3.072014901191e-01 
4.156599234794e+01 3.069416609898e-01 
4.160129496051e+01 3.066875525677e-01 
4.162528429162e+01 3.065154660037e-01 
4.164927362273e+01 3.063438364387e-01 
4.470672563210e+01 2.878700796806e-01 
4.475465646392e+01 2.876193798738e-01 
4.480172661401e+01 2.873742464412e-01 
4.483371238882e+01 2.872082638716e-01 
4.486569816363e+01 2.870427422025e-01 
4.788340704013e+01 2.733365883630e-01 
4.794332057990e+01 2.730949371426e-01 
4.800215826751e+01 2.728586806781e-01 
4.804214048603e+01 2.726987251024e-01 
4.808212270454e+01 2.725392263073e-01 
 TITLE = "Profiles along polylines"
 VARIABLES = "DIST" "SATURATION1" 
 ZONE T="TIME=1.797693134862e+308"
1.288340704013e+01 1.000000000000e+00 
1.294332057990e+01 1.000000000000e+00 
1.300215826751e+01 1.000000000000e+00 
1.304214048603e+01 1.000000000000e+00 
1.308212270454e+01 1.000000000000e+00 
1.345396013879e+01 1.000000000000e+00 
1.351187656057e+01 1.000000000000e+00 
1.356875299193e+01 1.000000000000e+00 
1.360740246983e+01 1.000000000000e+00 
1.364605194772e+01 1.000000000000e+00 
1.402451323745e+01 1.000000000000e+00 
1.408043254124e+01 1.000000000000e+00 
1.413534771634e+01 1.000000000000e+00 
1.417266445362e+01 1.000000000000e+00 
1.420998119091e+01 1.000000000000e+00 
1.459506633612e+01 1.000000000000e+00 
1.464898852191e+01 1.000000000000e+00 
1.470194244076e+01 1.000000000000e+00 
1.473792643742e+01 1.000000000000e+00 
1.477391043409e+01 1.000000000000e+00 
1.516561943478e+01 1.000000000000e+00 
1.521754450258e+01 1.000000000000e+00 
1.526853716518e+01 1.000000000000e+00 
1.530318842122e+01 1.000000000000e+00 
1.533783967727e+01 1.000000000000e+00 
1.573617253344e+01 1.000000000000e+00 
1.578610048325e+01 1.000000000000e+00 
1.583513188959e+01 1.000000000000e+00 
1.586845040502e+01 1.000000000000e+00 
1.590176892045e+01 1.000000000000e+00 
1.630672563210e+01 1.000000000000e+00 
1.635465646392e+01 1.000000000000e+00 
1.640172661401e+01 1.000000000000e+00 
1.643371238882e+01 1.000000000000e+00 
1.646569816363e+01 1.000000000000e+00 
1.687727873076e+01 1.000000000000e+00 
1.692321244459e+01 1.000000000000e+00 
1.696832133842e+01 1.000000000000e+00 
1.699897437262e+01 1.000000000000e+00 
1.702962740682e+01 1.000000000000e+00 
1.744783182943e+01 1.000000000000e+00 
1.749176842526e+01 1.000000000000e+00 
1.753491606284e+01 1.000000000000e+00 
1.756423635642e+01 1.000000000000e+00 
1.759355665000e+01 1.000000000000e+00 
1.801838492809e+01 1.000000000000e+00 
1.806032440593e+01 1.000000000000e+00 
1.810151078726e+01 1.000000000000e+00 
1.812949834022e+01 1.000000000000e+00 
1.815748589318e+01 1.000000000000e+00 
1.858893802675e+01 1.000000000000e+00 
1.862888038660e+01 1.000000000000e+00 
1.866810551167e+01 1.000000000000e+00 
1.869476032401e+01 1.000000000000e+00 
1.872141513636e+01 1.000000000000e+00 
1.915949112541e+01 1.000000000000e+00 
1.919743636727e+01 1.000000000000e+00 
1.923470023609e+01 1.000000000000e+00 
1.926002230781e+01 1.000000000000e+00 
1.928534437954e+01 1.000000000000e+00 
1.973004422407e+01 1.000000000000e+00 
1.976599234794e+01 1.000000000000e+00 
1.980129496050e+01 1.000000000000e+00 
1.982528429161e+01 1.000000000000e+00 
1.984927362272e+01 1.000000000000e+00 
2.030059732273e+01 1.000000000000e+00 
2.033454832860e+01 1.000000000000e+00 
2.036788968492e+01 1.000000000000e+00 
2.039054627541e+01 1.000000000000e+00 
2.041320286590e+01 1.000000000000e+00 
2.087115042139e+01 1.000000000000e+00 
2.090310430927e+01 1.000000000000e+00 
2.093448440933e+01 1.000000000000e+00 
2.095580825921e+01 1.000000000000e+00 
2.097713210908e+01 1.000000000000e+00 
2.144170352006e+01 1.000000000000e+00 
2.147166028994e+01 1.000000000000e+00 
2.150107913375e+01 1.000000000000e+00 
2.152107024300e+01 1.000000000000e+00 
2.154106135226e+01 1.000000000000e+00 
2.201225661872e+01 1.000000000000e+00 
2.204021627061e+01 1.000000000000e+00 
2.206767385816e+01 1.000000000000e+00 
2.208633222680e+01 1.000000000000e+00 
2.210499059544e+01 1.000000000000e+00 
2.258280971738e+01 1.000000000000e+00 
2.260877225128e+01 1.000000000000e+00 
2.263426858258e+01 1.000000000000e+00 
2.265159421060e+01 1.000000000000e+00 
2.266891983863e+01 1.000000000000e+00 
2.315336281604e+01 1.000000000000e+00 
2.317732823195e+01 1.000000000000e+00 
2.320086330700e+01 1.000000000000e+00 
2.321685619440e+01 1.000000000000e+00 
2.323284908181e+01 1.000000000000e+00 
2.372391591471e+01 1.000000000000e+00 
2.374588421262e+01 1.000000000000e+00 
2.376745803141e+01 1.000000000000e+00 
2.378211817820e+01 1.000000000000e+00 
2.379677832499e+01 1.000000000000e+00 
2.429446901337e+01 1.000000000000e+00 
2.431444019329e+01 1.000000000000e+00 
2.433405275583e+01 1.000000000000e+00 
2.434738016200e+01 1.000000000000e+00 
2.436070756817e+01 1.000000000000e+00 
2.486502211203e+01 1.000000000000e+00 
2.488299617397e+01 1.000000000000e+00 
2.490064748025e+01 1.000000000000e+00 
2.491264214580e+01 1.000000000000e+00 
2.492463681136e+01 1.000000000000e+00 
2.543557521070e+01 1.000000000000e+00 
2.545155215464e+01 1.000000000000e+00 
2.546724220466e+01 1.000000000000e+00 
2.547790412960e+01 1.000000000000e+00 
2.548856605454e+01 1.000000000000e+00 
2.600612830936e+01 1.000000000000e+00 
2.602010813531e+01 1.000000000000e+00 
2.603383692908e+01 1.000000000000e+00 
2.604316611340e+01 1.000000000000e+00 
2.605249529772e+01 1.000000000000e+00 
2.657668140802e+01 1.000000000000e+00 
2.658866411598e+01 1.000000000000e+00 
2.660043165350e+01 1.000000000000e+00 
2.660842809720e+01 1.000000000000e+00 
2.661642454090e+01 1.000000000000e+00 
2.714723450668e+01 1.000000000000e+00 
2.715722009665e+01 1.000000000000e+00 
2.716702637792e+01 1.000000000000e+00 
2.717369008100e+01 1.000000000000e+00 
2.718035378409e+01 1.000000000000e+00 
2.771778760535e+01 1.000000000000e+00 
2.772577607732e+01 1.000000000000e+00 
2.773362110233e+01 1.000000000000e+00 
2.773895206480e+01 1.000000000000e+00 
2.774428302727e+01 1.000000000000e+00 
2.828834070401e+01 1.000000000000e+00 
2.829433205799e+01 1.000000000000e+00 
2.830021582675e+01 1.000000000000e+00 
2.830421404860e+01 1.000000000000e+00 
2.830821227045e+01 1.000000000000e+00 
2.885889380267e+01 1.000000000000e+00 
2.886288803866e+01 1.000000000000e+00 
2.886681055117e+01 1.000000000000e+00 
2.886947603240e+01 1.000000000000e+00 
2.887214151364e+01 1.000000000000e+00 
2.942944690134e+01 1.000000000000e+00 
2.943144401933e+01 1.000000000000e+00 
2.943340527558e+01 1.000000000000e+00 
2.943473801620e+01 1.000000000000e+00 
2.943607075682e+01 1.000000000000e+00 
3.000000000000e+01 1.000000000000e+00 
3.000000000000e+01 1.000000000000e+00 
3.000000000000e+01 1.000000000000e+00 
3.000000000000e+01 1.000000000000e+00 
3.000000000000e+01 1.000000000000e+00 
3.002500000000e+01 1.000000000000e+00 
3.002500000000e+01 1.000000000000e+00 
3.002500000000e+01 1.000000000000e+00 
3.002500000000e+01 1.000000000000e+00 
3.002500000000e+01 1.000000000000e+00 
3.005000000000e+01 1.000000000000e+00 
3.005000000000e+01 1.000000000000e+00 
3.005000000000e+01 1.000000000000e+00 
3.005000000000e+01 1.000000000000e+00 
3.005000000000e+01 1.000000000000e+00 
3.007500000000e+01 1.000000000000e+00 
3.007500000000e+01 1.000000000000e+00 
3.007500000000e+01 1.000000000000e+00 
3.007500000000e+01 1.000000000000e+00 
3.007500000000e+01 1.000000000000e+00 
3.010000000000e+01 1.000000000000e+00 
3.010000000000e+01 1.000000000000e+00 
3.010000000000e+01 1.000000000000e+00 
3.010000000000e+01 1.000000000000e+00 
3.010000000000e+01 1.000000000000e+00 
3.012500000000e+01 1.000000000000e+00 
3.012500000000e+01 1.000000000000e+00 
3.012500000000e+01 1.000000000000e+00 
3.012500000000e+01 1.000000000000e+00 
3.012500000000e+01 1.000000000000e+00 
3.015000000000e+01 1.000000000000e+00 
3.015000000000e+01 1.000000000000e+00 
3.015000000000e+01 1.000000000000e+00 