 TITLE = "Profiles along polylines"
 VARIABLES = "DIST" "SATURATION1" 
 ZONE T="TIME=0.000000000000e+00"
1.784020534764e+01 1.000000000000e+00 
1.787020249559e+01 1.000000000000e+00 
1.790019964354e+01 1.000000000000e+00 
1.793019679149e+01 1.000000000000e+00 
1.796019393944e+01 1.000000000000e+00 
1.824553183605e+01 1.000000000000e+00 
1.827452907907e+01 1.000000000000e+00 
1.830352632209e+01 1.000000000000e+00 
1.833252356511e+01 1.000000000000e+00 
1.836152080813e+01 1.000000000000e+00 
1.865085832447e+01 1.000000000000e+00 
1.867885566255e+01 1.000000000000e+00 
1.870685300064e+01 1.000000000000e+00 
1.873485033872e+01 1.000000000000e+00 
1.876284767681e+01 1.000000000000e+00 
1.905618481288e+01 1.000000000000e+00 
1.908318224603e+01 1.000000000000e+00 
1.911017967919e+01 1.000000000000e+00 
1.913717711234e+01 1.000000000000e+00 
1.916417454550e+01 1.000000000000e+00 
1.946151130129e+01 1.000000000000e+00 
1.948750882951e+01 1.000000000000e+00 
1.951350635774e+01 1.000000000000e+00 
1.953950388596e+01 1.000000000000e+00 
1.956550141418e+01 1.000000000000e+00 
1.986683778970e+01 1.000000000000e+00 
1.989183541299e+01 1.000000000000e+00 
1.991683303628e+01 1.000000000000e+00 
1.994183065958e+01 1.000000000000e+00 
1.996682828287e+01 1.000000000000e+00 
2.027216427811e+01 1.000000000000e+00 
2.029616199647e+01 1.000000000000e+00 
2.032015971483e+01 1.000000000000e+00 
2.034415743319e+01 1.000000000000e+00 
2.036815515155e+01 1.000000000000e+00 
2.067749076653e+01 1.000000000000e+00 
2.070048857995e+01 1.000000000000e+00 
2.072348639338e+01 1.000000000000e+00 
2.074648420681e+01 1.000000000000e+00 
2.076948202024e+01 1.000000000000e+00 
2.108281725494e+01 1.000000000000e+00 
2.110481516343e+01 1.000000000000e+00 
2.112681307193e+01 1.000000000000e+00 
2.114881098043e+01 1.000000000000e+00 
2.117080888892e+01 1.000000000000e+00 
2.148814374335e+01 1.000000000000e+00 
2.150914174691e+01 1.000000000000e+00 
2.153013975048e+01 1.000000000000e+00 
2.155113775404e+01 1.000000000000e+00 
2.157213575761e+01 1.000000000000e+00 
2.189347023176e+01 1.000000000000e+00 
2.191346833039e+01 1.000000000000e+00 
2.193346642903e+01 1.000000000000e+00 
2.195346452766e+01 1.000000000000e+00 
2.197346262629e+01 1.000000000000e+00 
2.229879672017e+01 1.000000000000e+00 
2.231779491387e+01 1.000000000000e+00 
2.233679310757e+01 1.000000000000e+00 
2.235579130128e+01 1.000000000000e+00 
2.237478949498e+01 1.000000000000e+00 
2.270412320858e+01 1.000000000000e+00 
2.272212149735e+01 1.000000000000e+00 
2.274011978612e+01 1.000000000000e+00 
2.275811807489e+01 1.000000000000e+00 
2.277611636366e+01 1.000000000000e+00 
2.310944969700e+01 1.000000000000e+00 
2.312644808083e+01 1.000000000000e+00 
2.314344646467e+01 1.000000000000e+00 
2.316044484851e+01 1.000000000000e+00 
2.317744323235e+01 1.000000000000e+00 
2.351477618541e+01 1.000000000000e+00 
2.353077466431e+01 1.000000000000e+00 
2.354677314322e+01 1.000000000000e+00 
2.356277162213e+01 1.000000000000e+00 
2.357877010103e+01 1.000000000000e+00 
2.392010267382e+01 1.000000000000e+00 
2.393510124779e+01 1.000000000000e+00 
2.395009982177e+01 1.000000000000e+00 
2.396509839574e+01 1.000000000000e+00 
2.398009696972e+01 1.000000000000e+00 
2.432542916223e+01 1.000000000000e+00 
2.433942783127e+01 1.000000000000e+00 
2.435342650032e+01 1.000000000000e+00 
2.436742516936e+01 1.000000000000e+00 
2.438142383840e+01 1.000000000000e+00 
2.473075565064e+01 1.000000000000e+00 
2.474375441475e+01 1.000000000000e+00 
2.475675317887e+01 1.000000000000e+00 
2.476975194298e+01 1.000000000000e+00 
2.478275070709e+01 1.000000000000e+00 
2.513608213905e+01 1.000000000000e+00 
2.514808099823e+01 1.000000000000e+00 
2.516007985741e+01 1.000000000000e+00 
2.517207871659e+01 1.000000000000e+00 
2.518407757577e+01 1.000000000000e+00 
2.554140862747e+01 1.000000000000e+00 
2.555240758171e+01 1.000000000000e+00 
2.556340653596e+01 1.000000000000e+00 
2.557440549021e+01 1.000000000000e+00 
2.558540444446e+01 1.000000000000e+00 
2.594673511588e+01 1.000000000000e+00 
2.595673416520e+01 1.000000000000e+00 
2.596673321451e+01 1.000000000000e+00 
2.597673226383e+01 1.000000000000e+00 
2.598673131314e+01 1.000000000000e+00 
2.635206160429e+01 1.000000000000e+00 
2.636106074868e+01 1.000000000000e+00 
2.637005989306e+01 1.000000000000e+00 
2.637905903745e+01 1.000000000000e+00 
2.638805818183e+01 1.000000000000e+00 
2.675738809270e+01 1.000000000000e+00 
2.676538733216e+01 1.000000000000e+00 
2.677338657161e+01 1.000000000000e+00 
2.678138581106e+01 1.000000000000e+00 
2.678938505052e+01 1.000000000000e+00 
2.716271458112e+01 1.000000000000e+00 
2.716971391564e+01 1.000000000000e+00 
2.717671325016e+01 1.000000000000e+00 
2.718371258468e+01 1.000000000000e+00 
2.719071191920e+01 1.000000000000e+00 
2.756804106953e+01 1.000000000000e+00 
2.757404049912e+01 1.000000000000e+00 
2.758003992871e+01 1.000000000000e+00 
2.758603935830e+01 1.000000000000e+00 
2.759203878789e+01 1.000000000000e+00 
2.797336755794e+01 1.000000000000e+00 
2.797836708260e+01 1.000000000000e+00 
2.798336660726e+01 1.000000000000e+00 
2.798836613191e+01 1.000000000000e+00 
2.799336565657e+01 1.000000000000e+00 
2.837869404635e+01 1.000000000000e+00 
2.838269366608e+01 1.000000000000e+00 
2.838669328580e+01 1.000000000000e+00 
2.839069290553e+01 1.000000000000e+00 
2.839469252526e+01 1.000000000000e+00 
2.878402053476e+01 1.000000000000e+00 
2.878702024956e+01 1.000000000000e+00 
2.879001996435e+01 1.000000000000e+00 
2.879301967915e+01 1.000000000000e+00 
2.879601939394e+01 1.000000000000e+00 
2.918934702318e+01 1.000000000000e+00 
2.919134683304e+01 1.000000000000e+00 
2.919334664290e+01 1.000000000000e+00 
2.919534645277e+01 1.000000000000e+00 
2.919734626263e+01 1.000000000000e+00 
2.959467351159e+01 1.000000000000e+00 
2.959567341652e+01 1.000000000000e+00 
2.959667332145e+01 1.000000000000e+00 
2.959767322638e+01 1.000000000000e+00 
2.959867313131e+01 1.000000000000e+00 
3.000000000000e+01 1.000000000000e+00 
3.000000000000e+01 1.000000000000e+00 
3.000000000000e+01 1.000000000000e+00 
3.000000000000e+01 1.000000000000e+00 
3.000000000000e+01 1.000000000000e+00 
3.002500000000e+01 9.876207709446e-01 
3.002500000000e+01 9.876207709446e-01 
3.002500000000e+01 9.876207709446e-01 
3.002500000000e+01 9.876207709446e-01 
3.002500000000e+01 9.876207709446e-01 
3.005000000000e+01 9.697756439369e-01 
3.005000000000e+01 9.697756439369e-01 
3.005000000000e+01 9.697756439369e-01 
3.005000000000e+01 9.697756439369e-01 
3.005000000000e+01 9.697756439369e-01 
3.007500000000e+01 9.507134089444e-01 
3.007500000000e+01 9.507134089444e-01 
3.007500000000e+01 9.507134089444e-01 
3.007500000000e+01 9.507134089444e-01 
3.007500000000e+01 9.507134089444e-01 
3.010000000000e+01 9.315621650298e-01 
3.010000000000e+01 9.315621650298e-01 
3.010000000000e+01 9.315621650298e-01 
3.010000000000e+01 9.315621650298e-01 
3.010000000000e+01 9.315621650298e-01 
3.012500000000e+01 9.128758324042e-01 
3.012500000000e+01 9.128758324042e-01 
3.012500000000e+01 9.128758324042e-01 
3.012500000000e+01 9.128758324042e-01 
3.012500000000e+01 9.128758324042e-01 
3.015000000000e+01 8.949248043380e-01 
3.015000000000e+01 8.949248043380e-01 
3.015000000000e+01 8.949248043380e-01 
3.015000000000e+01 8.949248043380e-01 
3.015000000000e+01 8.949248043380e-01 
3.017500000000e+01 8.778290027968e-01 
3.017500000000e+01 8.778290027968e-01 
3.017500000000e+01 8.778290027968e-01 
3.017500000000e+01 8.778290027968e-01 
3.017500000000e+01 8.778290027968e-01 
3.020000000000e+01 8.616255702900e-01 
3.020000000000e+01 8.616255702900e-01 
3.020000000000e+01 8.616255702900e-01 
3.020000000000e+01 8.616255702900e-01 
3.020000000000e+01 8.616255702900e-01 
3.022500000000e+01 8.463059583920e-01 
3.022500000000e+01 8.463059583920e-01 
3.022500000000e+01 8.463059583920e-01 
3.022500000000e+01 8.463059583920e-01 
3.022500000000e+01 8.463059583920e-01 
3.025000000000e+01 8.318370344398e-01 
3.025000000000e+01 8.318370344398e-01 
3.025000000000e+01 8.318370344398e-01 
3.025000000000e+01 8.318370344398e-01 
3.025000000000e+01 8.318370344398e-01 
3.027500000000e+01 8.181733156316e-01 
3.027500000000e+01 8.181733156316e-01 
3.027500000000e+01 8.181733156316e-01 
3.027500000000e+01 8.181733156316e-01 
3.027500000000e+01 8.181733156316e-01 
3.030000000000e+01 8.052640970350e-01 
3.030000000000e+01 8.052640970350e-01 
3.030000000000e+01 8.052640970350e-01 
3.030000000000e+01 8.052640970350e-01 
3.030000000000e+01 8.052640970350e-01 
3.032500000000e+01 7.930575753856e-01 
3.032500000000e+01 7.930575753856e-01 
3.032500000000e+01 7.930575753856e-01 
3.032500000000e+01 7.930575753856e-01 
3.032500000000e+01 7.930575753856e-01 
3.035000000000e+01 7.815031815402e-01 
3.035000000000e+01 7.815031815402e-01 
3.035000000000e+01 7.815031815402e-01 
3.035000000000e+01 7.815031815402e-01 
3.035000000000e+01 7.815031815402e-01 
3.037500000000e+01 7.705528376764e-01 
3.037500000000e+01 7.705528376764e-01 
3.037500000000e+01 7.705528376764e-01 
3.037500000000e+01 7.705528376764e-01 
3.037500000000e+01 7.705528376764e-01 
3.040000000000e+01 7.601615689674e-01 
3.040000000000e+01 7.601615689674e-01 
3.040000000000e+01 7.601615689674e-01 
3.040000000000e+01 7.601615689674e-01 
3.040000000000e+01 7.601615689674e-01 
3.042500000000e+01 7.502877306002e-01 
3.042500000000e+01 7.502877306002e-01 
3.042500000000e+01 7.502877306002e-01 
3.042500000000e+01 7.502877306002e-01 
3.042500000000e+01 7.502877306002e-01 
3.045000000000e+01 7.408930096824e-01 
3.045000000000e+01 7.408930096824e-01 
3.045000000000e+01 7.408930096824e-01 
3.045000000000e+01 7.408930096824e-01 
3.045000000000e+01 7.408930096824e-01 
3.047500000000e+01 7.319422999608e-01 
3.047500000000e+01 7.319422999608e-01 
3.047500000000e+01 7.319422999608e-01 
3.047500000000e+01 7.319422999608e-01 
3.047500000000e+01 7.319422999608e-01 
3.050000000000e+01 7.234035093991e-01 
3.050000000000e+01 7.234035093991e-01 
3.050000000000e+01 7.234035093991e-01 
3.050000000000e+01 7.234035093991e-01 
3.050000000000e+01 7.234035093991e-01 
3.052500000000e+01 7.152473371957e-01 
3.052500000000e+01 7.152473371957e-01 
3.052500000000e+01 7.152473371957e-01 
3.052500000000e+01 7.152473371957e-01 
3.052500000000e+01 7.152473371957e-01 
3.055000000000e+01 7.074470422112e-01 
3.055000000000e+01 7.074470422112e-01 
3.055000000000e+01 7.074470422112e-01 
3.055000000000e+01 7.074470422112e-01 
3.055000000000e+01 7.074470422112e-01 
3.057500000000e+01 6.999782156504e-01 
3.057500000000e+01 6.999782156504e-01 
3.057500000000e+01 6.999782156504e-01 
3.057500000000e+01 6.999782156504e-01 
3.057500000000e+01 6.999782156504e-01 
3.060000000000e+01 6.928185651596e-01 
3.060000000000e+01 6.928185651596e-01 
3.060000000000e+01 6.928185651596e-01 
3.060000000000e+01 6.928185651596e-01 
3.060000000000e+01 6.928185651596e-01 
3.062500000000e+01 6.859477139679e-01 
3.062500000000e+01 6.859477139679e-01 
3.062500000000e+01 6.859477139679e-01 
3.062500000000e+01 6.859477139679e-01 
3.062500000000e+01 6.859477139679e-01 
3.065000000000e+01 6.793470165436e-01 
3.065000000000e+01 6.793470165436e-01 
3.065000000000e+01 6.793470165436e-01 
3.065000000000e+01 6.793470165436e-01 
3.065000000000e+01 6.793470165436e-01 
3.067500000000e+01 6.729993909360e-01 
3.067500000000e+01 6.729993909360e-01 
3.067500000000e+01 6.729993909360e-01 
3.067500000000e+01 6.729993909360e-01 
3.067500000000e+01 6.729993909360e-01 
3.070000000000e+01 6.668891672206e-01 
3.070000000000e+01 6.668891672206e-01 
3.070000000000e+01 6.668891672206e-01 
3.070000000000e+01 6.668891672206e-01 
3.070000000000e+01 6.668891672206e-01 
3.072500000000e+01 6.610019510587e-01 
3.072500000000e+01 6.610019510587e-01 
3.072500000000e+01 6.610019510587e-01 
3.072500000000e+01 6.610019510587e-01 
3.072500000000e+01 6.610019510587e-01 
3.075000000000e+01 6.553245011865e-01 
3.075000000000e+01 6.553245011865e-01 
3.075000000000e+01 6.553245011865e-01 
3.075000000000e+01 6.553245011865e-01 
3.075000000000e+01 6.553245011865e-01 
3.077500000000e+01 6.498446195878e-01 
3.077500000000e+01 6.498446195878e-01 
3.077500000000e+01 6.498446195878e-01 
3.077500000000e+01 6.498446195878e-01 
3.077500000000e+01 6.498446195878e-01 
3.080000000000e+01 6.445510531188e-01 
3.080000000000e+01 6.445510531188e-01 
3.080000000000e+01 6.445510531188e-01 
3.080000000000e+01 6.445510531188e-01 
3.080000000000e+01 6.445510531188e-01 
3.082500000000e+01 6.394334054150e-01 
3.082500000000e+01 6.394334054150e-01 
3.082500000000e+01 6.394334054150e-01 
3.082500000000e+01 6.394334054150e-01 
3.082500000000e+01 6.394334054150e-01 
3.085000000000e+01 6.344820579917e-01 
3.085000000000e+01 6.344820579917e-01 
3.085000000000e+01 6.344820579917e-01 
3.085000000000e+01 6.344820579917e-01 
3.085000000000e+01 6.344820579917e-01 
3.087500000000e+01 6.296880995462e-01 
3.087500000000e+01 6.296880995462e-01 
3.087500000000e+01 6.296880995462e-01 
3.087500000000e+01 6.296880995462e-01 
3.087500000000e+01 6.296880995462e-01 
3.090000000000e+01 6.250432625624e-01 
3.090000000000e+01 6.250432625624e-01 
3.090000000000e+01 6.250432625624e-01 
3.090000000000e+01 6.250432625624e-01 
3.090000000000e+01 6.250432625624e-01 
3.092500000000e+01 6.205398664126e-01 
3.092500000000e+01 6.205398664126e-01 
3.092500000000e+01 6.205398664126e-01 
3.092500000000e+01 6.205398664126e-01 
3.092500000000e+01 6.205398664126e-01 
3.095000000000e+01 6.161707662369e-01 
3.095000000000e+01 6.161707662369e-01 
3.095000000000e+01 6.161707662369e-01 
3.095000000000e+01 6.161707662369e-01 
3.095000000000e+01 6.161707662369e-01 
3.097500000000e+01 6.119293069613e-01 
3.097500000000e+01 6.119293069613e-01 
3.097500000000e+01 6.119293069613e-01 
3.097500000000e+01 6.119293069613e-01 
3.097500000000e+01 6.119293069613e-01 
3.100000000000e+01 6.078092818871e-01 
3.100000000000e+01 6.078092818871e-01 
3.100000000000e+01 6.078092818871e-01 
3.100000000000e+01 6.078092818871e-01 
3.100000000000e+01 6.078092818871e-01 
3.102500000000e+01 6.038048953494e-01 
3.102500000000e+01 6.038048953494e-01 
3.102500000000e+01 6.038048953494e-01 
3.102500000000e+01 6.038048953494e-01 
3.102500000000e+01 6.038048953494e-01 
3.105000000000e+01 5.999107290013e-01 
3.105000000000e+01 5.999107290013e-01 
3.105000000000e+01 5.999107290013e-01 
3.105000000000e+01 5.999107290013e-01 
3.105000000000e+01 5.999107290013e-01 
3.107500000000e+01 5.961217113309e-01 
3.107500000000e+01 5.961217113309e-01 
3.107500000000e+01 5.961217113309e-01 
3.107500000000e+01 5.961217113309e-01 
3.107500000000e+01 5.961217113309e-01 
3.110000000000e+01 5.924330900627e-01 
3.110000000000e+01 5.924330900627e-01 
3.110000000000e+01 5.924330900627e-01 
3.110000000000e+01 5.924330900627e-01 
3.110000000000e+01 5.924330900627e-01 
3.112500000000e+01 5.888404071392e-01 
3.112500000000e+01 5.888404071392e-01 
3.112500000000e+01 5.888404071392e-01 
3.112500000000e+01 5.888404071392e-01 
3.112500000000e+01 5.888404071392e-01 
3.115000000000e+01 5.853394760078e-01 
3.115000000000e+01 5.853394760078e-01 
3.115000000000e+01 5.853394760078e-01 
3.115000000000e+01 5.853394760078e-01 
3.115000000000e+01 5.853394760078e-01 
3.117500000000e+01 5.819263609758e-01 
3.117500000000e+01 5.819263609758e-01 
3.117500000000e+01 5.819263609758e-01 
3.117500000000e+01 5.819263609758e-01 
3.117500000000e+01 5.819263609758e-01 
3.120000000000e+01 5.785973584173e-01 
3.120000000000e+01 5.785973584173e-01 
3.120000000000e+01 5.785973584173e-01 
3.120000000000e+01 5.785973584173e-01 
3.120000000000e+01 5.785973584173e-01 
3.122500000000e+01 5.753489796460e-01 
3.122500000000e+01 5.753489796460e-01 
3.122500000000e+01 5.753489796460e-01 
3.122500000000e+01 5.753489796460e-01 
3.122500000000e+01 5.753489796460e-01 
3.125000000000e+01 5.721779352840e-01 
3.125000000000e+01 5.721779352840e-01 
3.125000000000e+01 5.721779352840e-01 
3.125000000000e+01 5.721779352840e-01 
3.125000000000e+01 5.721779352840e-01 
3.127500000000e+01 5.690811209785e-01 
3.127500000000e+01 5.690811209785e-01 
3.127500000000e+01 5.690811209785e-01 
3.127500000000e+01 5.690811209785e-01 
3.127500000000e+01 5.690811209785e-01 
3.130000000000e+01 5.660556043336e-01 
3.130000000000e+01 5.660556043336e-01 
3.130000000000e+01 5.660556043336e-01 
3.130000000000e+01 5.660556043336e-01 
3.130000000000e+01 5.660556043336e-01 
3.132500000000e+01 5.630986129391e-01 
3.132500000000e+01 5.630986129391e-01 
3.132500000000e+01 5.630986129391e-01 
3.132500000000e+01 5.630986129391e-01 
3.132500000000e+01 5.630986129391e-01 
3.135000000000e+01 5.602075233904e-01 
3.135000000000e+01 5.602075233904e-01 
3.135000000000e+01 5.602075233904e-01 
3.135000000000e+01 5.602075233904e-01 
3.135000000000e+01 5.602075233904e-01 
3.137500000000e+01 5.573798512060e-01 
3.137500000000e+01 5.573798512060e-01 
3.137500000000e+01 5.573798512060e-01 
3.137500000000e+01 5.573798512060e-01 
3.137500000000e+01 5.573798512060e-01 
3.140000000000e+01 5.546132415581e-01 
3.140000000000e+01 5.546132415581e-01 
3.140000000000e+01 5.546132415581e-01 
3.140000000000e+01 5.546132415581e-01 
3.140000000000e+01 5.546132415581e-01 
3.142500000000e+01 5.519054607414e-01 
3.142500000000e+01 5.519054607414e-01 
3.142500000000e+01 5.519054607414e-01 
3.142500000000e+01 5.519054607414e-01 
3.142500000000e+01 5.519054607414e-01 
3.145000000000e+01 5.492543883110e-01 
3.145000000000e+01 5.492543883110e-01 
3.145000000000e+01 5.492543883110e-01 
3.145000000000e+01 5.492543883110e-01 
3.145000000000e+01 5.492543883110e-01 
3.147500000000e+01 5.466580098318e-01 
3.147500000000e+01 5.466580098318e-01 
3.147500000000e+01 5.466580098318e-01 
3.147500000000e+01 5.466580098318e-01 
3.147500000000e+01 5.466580098318e-01 
3.150000000000e+01 5.441144101810e-01 
3.150000000000e+01 5.441144101810e-01 
3.150000000000e+01 5.441144101810e-01 
3.150000000000e+01 5.441144101810e-01 
3.150000000000e+01 5.441144101810e-01 
3.152500000000e+01 5.416217673588e-01 
3.152500000000e+01 5.416217673588e-01 
3.152500000000e+01 5.416217673588e-01 
3.152500000000e+01 5.416217673588e-01 
3.152500000000e+01 5.416217673588e-01 
3.155000000000e+01 5.391783467591e-01 
3.155000000000e+01 5.391783467591e-01 
3.155000000000e+01 5.391783467591e-01 
3.155000000000e+01 5.391783467591e-01 
3.155000000000e+01 5.391783467591e-01 
3.157500000000e+01 5.367824958643e-01 
3.157500000000e+01 5.367824958643e-01 
3.157500000000e+01 5.367824958643e-01 
3.157500000000e+01 5.367824958643e-01 
3.157500000000e+01 5.367824958643e-01 
3.160000000000e+01 5.344326393247e-01 
3.160000000000e+01 5.344326393247e-01 
3.160000000000e+01 5.344326393247e-01 
3.160000000000e+01 5.344326393247e-01 
3.160000000000e+01 5.344326393247e-01 
3.162500000000e+01 5.321272743928e-01 
3.162500000000e+01 5.321272743928e-01 
3.162500000000e+01 5.321272743928e-01 
3.162500000000e+01 5.321272743928e-01 
3.162500000000e+01 5.321272743928e-01 
3.165000000000e+01 5.298649666811e-01 
3.165000000000e+01 5.298649666811e-01 
3.165000000000e+01 5.298649666811e-01 
3.165000000000e+01 5.298649666811e-01 
3.165000000000e+01 5.298649666811e-01 
3.167500000000e+01 5.276443462180e-01 
3.167500000000e+01 5.276443462180e-01 
3.167500000000e+01 5.276443462180e-01 
3.167500000000e+01 5.276443462180e-01 
3.167500000000e+01 5.276443462180e-01 
3.170000000000e+01 5.254641037767e-01 
3.170000000000e+01 5.254641037767e-01 
3.170000000000e+01 5.254641037767e-01 
3.170000000000e+01 5.254641037767e-01 
3.170000000000e+01 5.254641037767e-01 
3.172500000000e+01 5.233229874560e-01 
3.172500000000e+01 5.233229874560e-01 
3.172500000000e+01 5.233229874560e-01 
3.172500000000e+01 5.233229874560e-01 
3.172500000000e+01 5.233229874560e-01 
3.175000000000e+01 5.212197994921e-01 
3.175000000000e+01 5.212197994921e-01 
3.175000000000e+01 5.212197994921e-01 
3.175000000000e+01 5.212197994921e-01 
3.175000000000e+01 5.212197994921e-01 
3.177500000000e+01 5.191533932842e-01 
3.177500000000e+01 5.191533932842e-01 
3.177500000000e+01 5.191533932842e-01 
3.177500000000e+01 5.191533932842e-01 
3.177500000000e+01 5.191533932842e-01 
3.180000000000e+01 5.171226706164e-01 
3.180000000000e+01 5.171226706164e-01 
3.180000000000e+01 5.171226706164e-01 
3.180000000000e+01 5.171226706164e-01 
3.180000000000e+01 5.171226706164e-01 
3.182500000000e+01 5.151265790614e-01 
3.182500000000e+01 5.151265790614e-01 
3.182500000000e+01 5.151265790614e-01 
3.182500000000e+01 5.151265790614e-01 
3.182500000000e+01 5.151265790614e-01 
3.185000000000e+01 5.131641095520e-01 
3.185000000000e+01 5.131641095520e-01 
3.185000000000e+01 5.131641095520e-01 
3.185000000000e+01 5.131641095520e-01 
3.185000000000e+01 5.131641095520e-01 
3.187500000000e+01 5.112342941078e-01 
3.187500000000e+01 5.112342941078e-01 
3.187500000000e+01 5.112342941078e-01 
3.187500000000e+01 5.112342941078e-01 
3.187500000000e+01 5.112342941078e-01 
3.190000000000e+01 5.093362037054e-01 
3.190000000000e+01 5.093362037054e-01 
3.190000000000e+01 5.093362037054e-01 
3.190000000000e+01 5.093362037054e-01 
3.190000000000e+01 5.093362037054e-01 
3.192500000000e+01 5.074689462822e-01 
3.192500000000e+01 5.074689462822e-01 
3.192500000000e+01 5.074689462822e-01 
3.192500000000e+01 5.074689462822e-01 
3.192500000000e+01 5.074689462822e-01 
3.195000000000e+01 5.056316648631e-01 
3.195000000000e+01 5.056316648631e-01 
3.195000000000e+01 5.056316648631e-01 
3.195000000000e+01 5.056316648631e-01 
3.195000000000e+01 5.056316648631e-01 
3.197500000000e+01 5.038235358020e-01 
3.197500000000e+01 5.038235358020e-01 
3.197500000000e+01 5.038235358020e-01 
3.197500000000e+01 5.038235358020e-01 
3.197500000000e+01 5.038235358020e-01 
3.200000000000e+01 4.947139726647e-01 
3.200000000000e+01 4.947417076675e-01 
3.200000000000e+01 4.947555730924e-01 
3.200000000000e+01 4.947278408535e-01 
3.200000000000e+01 4.947694371141e-01 
3.616804106953e+01 3.613372282056e-01 
3.617404049912e+01 3.612339656985e-01 
3.618003992871e+01 3.611308353439e-01 
3.618603935830e+01 3.610278368511e-01 
3.619203878789e+01 3.609249699302e-01 
4.033608213906e+01 3.159005523191e-01 
4.034808099824e+01 3.157999915534e-01 
4.036007985742e+01 3.156995857488e-01 
4.037207871660e+01 3.155993344889e-01 
4.038407757578e+01 3.154992373591e-01 
4.450412320859e+01 2.887416031560e-01 
4.452212149736e+01 2.886455780947e-01 
4.454011978612e+01 2.885497111176e-01 
4.455811807489e+01 2.884540017701e-01 
4.457611636366e+01 2.883584495997e-01 
4.867216427811e+01 2.701707635559e-01 
4.869616199647e+01 2.700792544861e-01 
4.872015971483e+01 2.699879014959e-01 
4.874415743319e+01 2.698967041202e-01 
4.876815515155e+01 2.698056618960e-01 
5.284020534764e+01 2.563455936111e-01 
5.287020249559e+01 2.562580923636e-01 
5.290019964354e+01 2.561707436963e-01 
5.293019679149e+01 2.560835471446e-01 
5.296019393944e+01 2.559965022456e-01 
 TITLE = "Profiles along polylines"
 VARIABLES = "DIST" "SATURATION1" 
 ZONE T="TIME=1.797693134862e+308"
1.784020534764e+01 1.000000000000e+00 
1.787020249559e+01 1.000000000000e+00 
1.790019964354e+01 1.000000000000e+00 
1.793019679149e+01 1.000000000000e+00 
1.796019393944e+01 1.000000000000e+00 
1.824553183605e+01 1.000000000000e+00 
1.827452907907e+01 1.000000000000e+00 
1.830352632209e+01 1.000000000000e+00 
1.833252356511e+01 1.000000000000e+00 
1.836152080813e+01 1.000000000000e+00 
1.865085832447e+01 1.000000000000e+00 
1.867885566255e+01 1.000000000000e+00 
1.870685300064e+01 1.000000000000e+00 
1.873485033872e+01 1.000000000000e+00 
1.876284767681e+01 1.000000000000e+00 
1.905618481288e+01 1.000000000000e+00 
1.908318224603e+01 1.000000000000e+00 
1.911017967919e+01 1.000000000000e+00 
1.913717711234e+01 1.000000000000e+00 
1.916417454550e+01 1.000000000000e+00 
1.946151130129e+01 1.000000000000e+00 
1.948750882951e+01 1.000000000000e+00 
1.951350635774e+01 1.000000000000e+00 
1.953950388596e+01 1.000000000000e+00 
1.956550141418e+01 1.000000000000e+00 
1.986683778970e+01 1.000000000000e+00 
1.989183541299e+01 1.000000000000e+00 
1.991683303628e+01 1.000000000000e+00 
1.994183065958e+01 1.000000000000e+00 
1.996682828287e+01 1.000000000000e+00 
2.027216427811e+01 1.000000000000e+00 
2.029616199647e+01 1.000000000000e+00 
2.032015971483e+01 1.000000000000e+00 
2.034415743319e+01 1.000000000000e+00 
2.036815515155e+01 1.000000000000e+00 
2.067749076653e+01 1.000000000000e+00 
2.070048857995e+01 1.000000000000e+00 
2.072348639338e+01 1.000000000000e+00 
2.074648420681e+01 1.000000000000e+00 
2.076948202024e+01 1.000000000000e+00 
2.108281725494e+01 1.000000000000e+00 
2.110481516343e+01 1.000000000000e+00 
2.112681307193e+01 1.000000000000e+00 
2.114881098043e+01 1.000000000000e+00 
2.117080888892e+01 1.000000000000e+00 
2.148814374335e+01 1.000000000000e+00 
2.150914174691e+01 1.000000000000e+00 
2.153013975048e+01 1.000000000000e+00 
2.155113775404e+01 1.000000000000e+00 
2.157213575761e+01 1.000000000000e+00 
2.189347023176e+01 1.000000000000e+00 
2.191346833039e+01 1.000000000000e+00 
2.193346642903e+01 1.000000000000e+00 
2.195346452766e+01 1.000000000000e+00 
2.197346262629e+01 1.000000000000e+00 
2.229879672017e+01 1.000000000000e+00 
2.231779491387e+01 1.000000000000e+00 
2.233679310757e+01 1.000000000000e+00 
2.235579130128e+01 1.000000000000e+00 
2.237478949498e+01 1.000000000000e+00 
2.270412320858e+01 1.000000000000e+00 
2.272212149735e+01 1.000000000000e+00 
2.274011978612e+01 1.000000000000e+00 
2.275811807489e+01 1.000000000000e+00 
2.277611636366e+01 1.000000000000e+00 
2.310944969700e+01 1.000000000000e+00 
2.312644808083e+01 1.000000000000e+00 
2.314344646467e+01 1.000000000000e+00 
2.316044484851e+01 1.000000000000e+00 
2.317744323235e+01 1.000000000000e+00 
2.351477618541e+01 1.000000000000e+00 
2.353077466431e+01 1.000000000000e+00 
2.354677314322e+01 1.000000000000e+00 
2.356277162213e+01 1.000000000000e+00 
2.357877010103e+01 1.000000000000e+00 
2.392010267382e+01 1.000000000000e+00 
2.393510124779e+01 1.000000000000e+00 
2.395009982177e+01 1.000000000000e+00 
2.396509839574e+01 1.000000000000e+00 
2.398009696972e+01 1.000000000000e+00 
2.432542916223e+01 1.000000000000e+00 
2.433942783127e+01 1.000000000000e+00 
2.435342650032e+01 1.000000000000e+00 
2.436742516936e+01 1.000000000000e+00 
2.438142383840e+01 1.000000000000e+00 
2.473075565064e+01 1.000000000000e+00 
2.474375441475e+01 1.000000000000e+00 
2.475675317887e+01 1.000000000000e+00 
2.476975194298e+01 1.000000000000e+00 
2.478275070709e+01 1.000000000000e+00 
2.513608213905e+01 1.000000000000e+00 
2.514808099823e+01 1.000000000000e+00 
2.516007985741e+01 1.000000000000e+00 
2.517207871659e+01 1.000000000000e+00 
2.518407757577e+01 1.000000000000e+00 
2.554140862747e+01 1.000000000000e+00 
2.555240758171e+01 1.000000000000e+00 
2.556340653596e+01 1.000000000000e+00 
2.557440549021e+01 1.000000000000e+00 
2.558540444446e+01 1.000000000000e+00 
2.594673511588e+01 1.000000000000e+00 
2.595673416520e+01 1.000000000000e+00 
2.596673321451e+01 1.000000000000e+00 
2.597673226383e+01 1.000000000000e+00 
2.598673131314e+01 1.000000000000e+00 
2.635206160429e+01 1.000000000000e+00 
2.636106074868e+01 1.000000000000e+00 
2.637005989306e+01 1.000000000000e+00 
2.637905903745e+01 1.000000000000e+00 
2.638805818183e+01 1.000000000000e+00 
2.675738809270e+01 1.000000000000e+00 
2.676538733216e+01 1.000000000000e+00 
2.677338657161e+01 1.000000000000e+00 
2.678138581106e+01 1.000000000000e+00 
2.678938505052e+01 1.000000000000e+00 
2.716271458112e+01 1.000000000000e+00 
2.716971391564e+01 1.000000000000e+00 
2.717671325016e+01 1.000000000000e+00 
2.718371258468e+01 1.000000000000e+00 
2.719071191920e+01 1.000000000000e+00 
2.756804106953e+01 1.000000000000e+00 
2.757404049912e+01 1.000000000000e+00 
2.758003992871e+01 1.000000000000e+00 
2.758603935830e+01 1.000000000000e+00 
2.759203878789e+01 1.000000000000e+00 
2.797336755794e+01 1.000000000000e+00 
2.797836708260e+01 1.000000000000e+00 
2.798336660726e+01 1.000000000000e+00 
2.798836613191e+01 1.000000000000e+00 
2.799336565657e+01 1.000000000000e+00 
2.837869404635e+01 1.000000000000e+00 
2.838269366608e+01 1.000000000000e+00 
2.838669328580e+01 1.000000000000e+00 
2.839069290553e+01 1.000000000000e+00 
2.839469252526e+01 1.000000000000e+00 
2.878402053476e+01 1.000000000000e+00 
2.878702024956e+01 1.000000000000e+00 
2.879001996435e+01 1.000000000000e+00 
2.879301967915e+01 1.000000000000e+00 
2.879601939394e+01 1.000000000000e+00 
2.918934702318e+01 1.000000000000e+00 
2.919134683304e+01 1.000000000000e+00 
2.919334664290e+01 1.000000000000e+00 
2.919534645277e+01 1.000000000000e+00 
2.919734626263e+01 1.000000000000e+00 
2.959467351159e+01 1.000000000000e+00 
2.959567341652e+01 1.000000000000e+00 
2.959667332145e+01 1.000000000000e+00 
2.959767322638e+01 1.000000000000e+00 
2.959867313131e+01 1.000000000000e+00 
3.000000000000e+01 1.000000000000e+00 
3.000000000000e+01 1.000000000000e+00 
3.000000000000e+01 1.000000000000e+00 
3.000000000000e+01 1.000000000000e+00 
3.000000000000e+01 1.000000000000e+00 
3.002500000000e+01 1.000000000000e+00 
3.002500000000e+01 1.000000000000e+00 
3.002500000000e+01 1.000000000000e+00 
3.002500000000e+01 1.000000000000e+00 
3.002500000000e+01 1.000000000000e+00 
3.005000000000e+01 1.000000000000e+00 
3.005000000000e+01 1.000000000000e+00 
3.005000000000e+01 1.000000000000e+00 
3.005000000000e+01 1.000000000000e+00 
3.005000000000e+01 1.000000000000e+00 
3.007500000000e+01 1.000000000000e+00 
3.007500000000e+01 1.000000000000e+00 
3.007500000000e+01 1.000000000000e+00 
3.007500000000e+01 1.000000000000e+00 
3.007500000000e+01 1.000000000000e+00 
3.010000000000e+01 1.000000000000e+00 
3.010000000000e+01 1.000000000000e+00 
3.010000000000e+01 1.000000000000e+00 
3.010000000000e+01 1.000000000000e+00 
3.010000000000e+01 1.000000000000e+00 
3.012500000000e+01 1.000000000000e+00 
3.012500000000e+01 1.000000000000e+00 
3.012500000000e+01 1.000000000000e+00 
3.012500000000e+01 1.000000000000e+00 
3.012500000000e+01 1.000000000000e+00 
3.015000000000e+01 1.000000000000e+00 
3.015000000000e+01 1.000000000000e+00 
3.015000000000e+01 1.000000000000e+00 