 TITLE = "Profiles along polylines"
 VARIABLES = "DIST" "SATURATION1" 
 ZONE T="TIME=0.000000000000e+00"
1.990681144115e+00 1.000000000000e+00 
1.995682855533e+00 1.000000000000e+00 
2.001369084364e+00 1.000000000000e+00 
2.011372132101e+00 1.000000000000e+00 
2.021375179838e+00 1.000000000000e+00 
2.924325105978e+00 1.000000000000e+00 
2.929160093682e+00 1.000000000000e+00 
2.934656781552e+00 1.000000000000e+00 
2.944326394364e+00 1.000000000000e+00 
2.953996007176e+00 1.000000000000e+00 
3.857969067840e+00 1.000000000000e+00 
3.862637331830e+00 1.000000000000e+00 
3.867944478739e+00 1.000000000000e+00 
3.877280656627e+00 1.000000000000e+00 
3.886616834514e+00 1.000000000000e+00 
4.791613029704e+00 1.000000000000e+00 
4.796114569979e+00 1.000000000000e+00 
4.801232175927e+00 1.000000000000e+00 
4.810234918890e+00 1.000000000000e+00 
4.819237661854e+00 1.000000000000e+00 
5.725256991567e+00 1.000000000000e+00 
5.729591808128e+00 1.000000000000e+00 
5.734519873115e+00 1.000000000000e+00 
5.743189181154e+00 1.000000000000e+00 
5.751858489192e+00 1.000000000000e+00 
6.658900953429e+00 1.000000000000e+00 
6.663069046276e+00 1.000000000000e+00 
6.667807570302e+00 1.000000000000e+00 
6.676143443416e+00 1.000000000000e+00 
6.684479316530e+00 1.000000000000e+00 
7.592544915291e+00 1.000000000000e+00 
7.596546284425e+00 1.000000000000e+00 
7.601095267490e+00 1.000000000000e+00 
7.609097705679e+00 1.000000000000e+00 
7.617100143868e+00 1.000000000000e+00 
8.526188877153e+00 1.000000000000e+00 
8.530023522573e+00 1.000000000000e+00 
8.534382964677e+00 1.000000000000e+00 
8.542051967942e+00 1.000000000000e+00 
8.549720971207e+00 1.000000000000e+00 
9.459832839015e+00 1.000000000000e+00 
9.463500760721e+00 1.000000000000e+00 
9.467670661864e+00 1.000000000000e+00 
9.475006230204e+00 1.000000000000e+00 
9.482341798544e+00 1.000000000000e+00 
1.039347680087e+01 1.000000000000e+00 
1.039697799887e+01 1.000000000000e+00 
1.040095835905e+01 1.000000000000e+00 
1.040796049246e+01 1.000000000000e+00 
1.041496262588e+01 1.000000000000e+00 
1.132712076273e+01 1.000000000000e+00 
1.133045523701e+01 1.000000000000e+00 
1.133424605623e+01 1.000000000000e+00 
1.134091475472e+01 1.000000000000e+00 
1.134758345322e+01 1.000000000000e+00 
1.226076472459e+01 1.000000000000e+00 
1.226393247516e+01 1.000000000000e+00 
1.226753375342e+01 1.000000000000e+00 
1.227386901698e+01 1.000000000000e+00 
1.228020428055e+01 1.000000000000e+00 
1.319440868645e+01 1.000000000000e+00 
1.319740971330e+01 1.000000000000e+00 
1.320082145060e+01 1.000000000000e+00 
1.320682327925e+01 1.000000000000e+00 
1.321282510789e+01 1.000000000000e+00 
1.412805264831e+01 1.000000000000e+00 
1.413088695145e+01 1.000000000000e+00 
1.413410914779e+01 1.000000000000e+00 
1.413977754151e+01 1.000000000000e+00 
1.414544593522e+01 1.000000000000e+00 
1.506169661017e+01 1.000000000000e+00 
1.506436418960e+01 1.000000000000e+00 
1.506739684497e+01 1.000000000000e+00 
1.507273180377e+01 1.000000000000e+00 
1.507806676256e+01 1.000000000000e+00 
1.599534057203e+01 1.000000000000e+00 
1.599784142774e+01 1.000000000000e+00 
1.600068454216e+01 1.000000000000e+00 
1.600568606603e+01 1.000000000000e+00 
1.601068758989e+01 1.000000000000e+00 
1.692898453390e+01 1.000000000000e+00 
1.693131866589e+01 1.000000000000e+00 
1.693397223935e+01 1.000000000000e+00 
1.693864032829e+01 1.000000000000e+00 
1.694330841723e+01 1.000000000000e+00 
1.786262849576e+01 1.000000000000e+00 
1.786479590404e+01 1.000000000000e+00 
1.786725993654e+01 1.000000000000e+00 
1.787159459056e+01 1.000000000000e+00 
1.787592924458e+01 1.000000000000e+00 
1.879627245763e+01 1.000000000000e+00 
1.879827314219e+01 1.000000000000e+00 
1.880054763373e+01 1.000000000000e+00 
1.880454885282e+01 1.000000000000e+00 
1.880855007192e+01 1.000000000000e+00 
1.972991641949e+01 1.000000000000e+00 
1.973175038034e+01 1.000000000000e+00 
1.973383533092e+01 1.000000000000e+00 
1.973750311509e+01 1.000000000000e+00 
1.974117089926e+01 1.000000000000e+00 
2.066356038136e+01 1.000000000000e+00 
2.066522761849e+01 1.000000000000e+00 
2.066712302810e+01 1.000000000000e+00 
2.067045737735e+01 1.000000000000e+00 
2.067379172660e+01 1.000000000000e+00 
2.159720434322e+01 1.000000000000e+00 
2.159870485665e+01 1.000000000000e+00 
2.160041072529e+01 1.000000000000e+00 
2.160341163962e+01 1.000000000000e+00 
2.160641255394e+01 1.000000000000e+00 
2.253084830508e+01 1.000000000000e+00 
2.253218209480e+01 1.000000000000e+00 
2.253369842248e+01 1.000000000000e+00 
2.253636590188e+01 1.000000000000e+00 
2.253903338128e+01 1.000000000000e+00 
2.346449226695e+01 1.000000000000e+00 
2.346565933295e+01 1.000000000000e+00 
2.346698611967e+01 1.000000000000e+00 
2.346932016415e+01 1.000000000000e+00 
2.347165420862e+01 1.000000000000e+00 
2.439813622881e+01 1.000000000000e+00 
2.439913657110e+01 1.000000000000e+00 
2.440027381686e+01 1.000000000000e+00 
2.440227442641e+01 1.000000000000e+00 
2.440427503596e+01 1.000000000000e+00 
2.533178019068e+01 1.000000000000e+00 
2.533261380925e+01 1.000000000000e+00 
2.533356151405e+01 1.000000000000e+00 
2.533522868868e+01 1.000000000000e+00 
2.533689586330e+01 1.000000000000e+00 
2.626542415254e+01 1.000000000000e+00 
2.626609104740e+01 1.000000000000e+00 
2.626684921124e+01 1.000000000000e+00 
2.626818295094e+01 1.000000000000e+00 
2.626951669064e+01 1.000000000000e+00 
2.719906811441e+01 1.000000000000e+00 
2.719956828555e+01 1.000000000000e+00 
2.720013690843e+01 1.000000000000e+00 
2.720113721321e+01 1.000000000000e+00 
2.720213751798e+01 1.000000000000e+00 
2.813271207627e+01 1.000000000000e+00 
2.813304552370e+01 1.000000000000e+00 
2.813342460562e+01 1.000000000000e+00 
2.813409147547e+01 1.000000000000e+00 
2.813475834532e+01 1.000000000000e+00 
2.906635603814e+01 1.000000000000e+00 
2.906652276185e+01 1.000000000000e+00 
2.906671230281e+01 1.000000000000e+00 
2.906704573774e+01 1.000000000000e+00 
2.906737917266e+01 1.000000000000e+00 
3.000000000000e+01 1.000000000000e+00 
3.000000000000e+01 1.000000000000e+00 
3.000000000000e+01 1.000000000000e+00 
3.000000000000e+01 1.000000000000e+00 
3.000000000000e+01 1.000000000000e+00 
3.002500000000e+01 9.876207709446e-01 
3.002500000000e+01 9.876207709446e-01 
3.002500000000e+01 9.876207709446e-01 
3.002500000000e+01 9.876207709446e-01 
3.002500000000e+01 9.876207709446e-01 
3.005000000000e+01 9.697756439369e-01 
3.005000000000e+01 9.697756439369e-01 
3.005000000000e+01 9.697756439369e-01 
3.005000000000e+01 9.697756439369e-01 
3.005000000000e+01 9.697756439369e-01 
3.007500000000e+01 9.507134089444e-01 
3.007500000000e+01 9.507134089444e-01 
3.007500000000e+01 9.507134089444e-01 
3.007500000000e+01 9.507134089444e-01 
3.007500000000e+01 9.507134089444e-01 
3.010000000000e+01 9.315621650298e-01 
3.010000000000e+01 9.315621650298e-01 
3.010000000000e+01 9.315621650298e-01 
3.010000000000e+01 9.315621650298e-01 
3.010000000000e+01 9.315621650298e-01 
3.012500000000e+01 9.128758324042e-01 
3.012500000000e+01 9.128758324042e-01 
3.012500000000e+01 9.128758324042e-01 
3.012500000000e+01 9.128758324042e-01 
3.012500000000e+01 9.128758324042e-01 
3.015000000000e+01 8.949248043380e-01 
3.015000000000e+01 8.949248043380e-01 
3.015000000000e+01 8.949248043380e-01 
3.015000000000e+01 8.949248043380e-01 
3.015000000000e+01 8.949248043380e-01 
3.017500000000e+01 8.778290027968e-01 
3.017500000000e+01 8.778290027968e-01 
3.017500000000e+01 8.778290027968e-01 
3.017500000000e+01 8.778290027968e-01 
3.017500000000e+01 8.778290027968e-01 
3.020000000000e+01 8.616255702900e-01 
3.020000000000e+01 8.616255702900e-01 
3.020000000000e+01 8.616255702900e-01 
3.020000000000e+01 8.616255702900e-01 
3.020000000000e+01 8.616255702900e-01 
3.022500000000e+01 8.463059583920e-01 
3.022500000000e+01 8.463059583920e-01 
3.022500000000e+01 8.463059583920e-01 
3.022500000000e+01 8.463059583920e-01 
3.022500000000e+01 8.463059583920e-01 
3.025000000000e+01 8.318370344398e-01 
3.025000000000e+01 8.318370344398e-01 
3.025000000000e+01 8.318370344398e-01 
3.025000000000e+01 8.318370344398e-01 
3.025000000000e+01 8.318370344398e-01 
3.027500000000e+01 8.181733156316e-01 
3.027500000000e+01 8.181733156316e-01 
3.027500000000e+01 8.181733156316e-01 
3.027500000000e+01 8.181733156316e-01 
3.027500000000e+01 8.181733156316e-01 
3.030000000000e+01 8.052640970350e-01 
3.030000000000e+01 8.052640970350e-01 
3.030000000000e+01 8.052640970350e-01 
3.030000000000e+01 8.052640970350e-01 
3.030000000000e+01 8.052640970350e-01 
3.032500000000e+01 7.930575753856e-01 
3.032500000000e+01 7.930575753856e-01 
3.032500000000e+01 7.930575753856e-01 
3.032500000000e+01 7.930575753856e-01 
3.032500000000e+01 7.930575753856e-01 
3.035000000000e+01 7.815031815402e-01 
3.035000000000e+01 7.815031815402e-01 
3.035000000000e+01 7.815031815402e-01 
3.035000000000e+01 7.815031815402e-01 
3.035000000000e+01 7.815031815402e-01 
3.037500000000e+01 7.705528376764e-01 
3.037500000000e+01 7.705528376764e-01 
3.037500000000e+01 7.705528376764e-01 
3.037500000000e+01 7.705528376764e-01 
3.037500000000e+01 7.705528376764e-01 
3.040000000000e+01 7.601615689674e-01 
3.040000000000e+01 7.601615689674e-01 
3.040000000000e+01 7.601615689674e-01 
3.040000000000e+01 7.601615689674e-01 
3.040000000000e+01 7.601615689674e-01 
3.042500000000e+01 7.502877306002e-01 
3.042500000000e+01 7.502877306002e-01 
3.042500000000e+01 7.502877306002e-01 
3.042500000000e+01 7.502877306002e-01 
3.042500000000e+01 7.502877306002e-01 
3.045000000000e+01 7.408930096824e-01 
3.045000000000e+01 7.408930096824e-01 
3.045000000000e+01 7.408930096824e-01 
3.045000000000e+01 7.408930096824e-01 
3.045000000000e+01 7.408930096824e-01 
3.047500000000e+01 7.319422999608e-01 
3.047500000000e+01 7.319422999608e-01 
3.047500000000e+01 7.319422999608e-01 
3.047500000000e+01 7.319422999608e-01 
3.047500000000e+01 7.319422999608e-01 
3.050000000000e+01 7.234035093991e-01 
3.050000000000e+01 7.234035093991e-01 
3.050000000000e+01 7.234035093991e-01 
3.050000000000e+01 7.234035093991e-01 
3.050000000000e+01 7.234035093991e-01 
3.052500000000e+01 7.152473371957e-01 
3.052500000000e+01 7.152473371957e-01 
3.052500000000e+01 7.152473371957e-01 
3.052500000000e+01 7.152473371957e-01 
3.052500000000e+01 7.152473371957e-01 
3.055000000000e+01 7.074470422112e-01 
3.055000000000e+01 7.074470422112e-01 
3.055000000000e+01 7.074470422112e-01 
3.055000000000e+01 7.074470422112e-01 
3.055000000000e+01 7.074470422112e-01 
3.057500000000e+01 6.999782156504e-01 
3.057500000000e+01 6.999782156504e-01 
3.057500000000e+01 6.999782156504e-01 
3.057500000000e+01 6.999782156504e-01 
3.057500000000e+01 6.999782156504e-01 
3.060000000000e+01 6.928185651596e-01 
3.060000000000e+01 6.928185651596e-01 
3.060000000000e+01 6.928185651596e-01 
3.060000000000e+01 6.928185651596e-01 
3.060000000000e+01 6.928185651596e-01 
3.062500000000e+01 6.859477139679e-01 
3.062500000000e+01 6.859477139679e-01 
3.062500000000e+01 6.859477139679e-01 
3.062500000000e+01 6.859477139679e-01 
3.062500000000e+01 6.859477139679e-01 
3.065000000000e+01 6.793470165436e-01 
3.065000000000e+01 6.793470165436e-01 
3.065000000000e+01 6.793470165436e-01 
3.065000000000e+01 6.793470165436e-01 
3.065000000000e+01 6.793470165436e-01 
3.067500000000e+01 6.729993909360e-01 
3.067500000000e+01 6.729993909360e-01 
3.067500000000e+01 6.729993909360e-01 
3.067500000000e+01 6.729993909360e-01 
3.067500000000e+01 6.729993909360e-01 
3.070000000000e+01 6.668891672206e-01 
3.070000000000e+01 6.668891672206e-01 
3.070000000000e+01 6.668891672206e-01 
3.070000000000e+01 6.668891672206e-01 
3.070000000000e+01 6.668891672206e-01 
3.072500000000e+01 6.610019510587e-01 
3.072500000000e+01 6.610019510587e-01 
3.072500000000e+01 6.610019510587e-01 
3.072500000000e+01 6.610019510587e-01 
3.072500000000e+01 6.610019510587e-01 
3.075000000000e+01 6.553245011865e-01 
3.075000000000e+01 6.553245011865e-01 
3.075000000000e+01 6.553245011865e-01 
3.075000000000e+01 6.553245011865e-01 
3.075000000000e+01 6.553245011865e-01 
3.077500000000e+01 6.498446195878e-01 
3.077500000000e+01 6.498446195878e-01 
3.077500000000e+01 6.498446195878e-01 
3.077500000000e+01 6.498446195878e-01 
3.077500000000e+01 6.498446195878e-01 
3.080000000000e+01 6.445510531188e-01 
3.080000000000e+01 6.445510531188e-01 
3.080000000000e+01 6.445510531188e-01 
3.080000000000e+01 6.445510531188e-01 
3.080000000000e+01 6.445510531188e-01 
3.082500000000e+01 6.394334054150e-01 
3.082500000000e+01 6.394334054150e-01 
3.082500000000e+01 6.394334054150e-01 
3.082500000000e+01 6.394334054150e-01 
3.082500000000e+01 6.394334054150e-01 
3.085000000000e+01 6.344820579917e-01 
3.085000000000e+01 6.344820579917e-01 
3.085000000000e+01 6.344820579917e-01 
3.085000000000e+01 6.344820579917e-01 
3.085000000000e+01 6.344820579917e-01 
3.087500000000e+01 6.296880995462e-01 
3.087500000000e+01 6.296880995462e-01 
3.087500000000e+01 6.296880995462e-01 
3.087500000000e+01 6.296880995462e-01 
3.087500000000e+01 6.296880995462e-01 
3.090000000000e+01 6.250432625624e-01 
3.090000000000e+01 6.250432625624e-01 
3.090000000000e+01 6.250432625624e-01 
3.090000000000e+01 6.250432625624e-01 
3.090000000000e+01 6.250432625624e-01 
3.092500000000e+01 6.205398664126e-01 
3.092500000000e+01 6.205398664126e-01 
3.092500000000e+01 6.205398664126e-01 
3.092500000000e+01 6.205398664126e-01 
3.092500000000e+01 6.205398664126e-01 
3.095000000000e+01 6.161707662369e-01 
3.095000000000e+01 6.161707662369e-01 
3.095000000000e+01 6.161707662369e-01 
3.095000000000e+01 6.161707662369e-01 
3.095000000000e+01 6.161707662369e-01 
3.097500000000e+01 6.119293069613e-01 
3.097500000000e+01 6.119293069613e-01 
3.097500000000e+01 6.119293069613e-01 
3.097500000000e+01 6.119293069613e-01 
3.097500000000e+01 6.119293069613e-01 
3.100000000000e+01 6.078092818871e-01 
3.100000000000e+01 6.078092818871e-01 
3.100000000000e+01 6.078092818871e-01 
3.100000000000e+01 6.078092818871e-01 
3.100000000000e+01 6.078092818871e-01 
3.102500000000e+01 6.038048953494e-01 
3.102500000000e+01 6.038048953494e-01 
3.102500000000e+01 6.038048953494e-01 
3.102500000000e+01 6.038048953494e-01 
3.102500000000e+01 6.038048953494e-01 
3.105000000000e+01 5.999107290013e-01 
3.105000000000e+01 5.999107290013e-01 
3.105000000000e+01 5.999107290013e-01 
3.105000000000e+01 5.999107290013e-01 
3.105000000000e+01 5.999107290013e-01 
3.107500000000e+01 5.961217113309e-01 
3.107500000000e+01 5.961217113309e-01 
3.107500000000e+01 5.961217113309e-01 
3.107500000000e+01 5.961217113309e-01 
3.107500000000e+01 5.961217113309e-01 
3.110000000000e+01 5.924330900627e-01 
3.110000000000e+01 5.924330900627e-01 
3.110000000000e+01 5.924330900627e-01 
3.110000000000e+01 5.924330900627e-01 
3.110000000000e+01 5.924330900627e-01 
3.112500000000e+01 5.888404071392e-01 
3.112500000000e+01 5.888404071392e-01 
3.112500000000e+01 5.888404071392e-01 
3.112500000000e+01 5.888404071392e-01 
3.112500000000e+01 5.888404071392e-01 
3.115000000000e+01 5.853394760078e-01 
3.115000000000e+01 5.853394760078e-01 
3.115000000000e+01 5.853394760078e-01 
3.115000000000e+01 5.853394760078e-01 
3.115000000000e+01 5.853394760078e-01 
3.117500000000e+01 5.819263609758e-01 
3.117500000000e+01 5.819263609758e-01 
3.117500000000e+01 5.819263609758e-01 
3.117500000000e+01 5.819263609758e-01 
3.117500000000e+01 5.819263609758e-01 
3.120000000000e+01 5.785973584173e-01 
3.120000000000e+01 5.785973584173e-01 
3.120000000000e+01 5.785973584173e-01 
3.120000000000e+01 5.785973584173e-01 
3.120000000000e+01 5.785973584173e-01 
3.122500000000e+01 5.753489796460e-01 
3.122500000000e+01 5.753489796460e-01 
3.122500000000e+01 5.753489796460e-01 
3.122500000000e+01 5.753489796460e-01 
3.122500000000e+01 5.753489796460e-01 
3.125000000000e+01 5.721779352840e-01 
3.125000000000e+01 5.721779352840e-01 
3.125000000000e+01 5.721779352840e-01 
3.125000000000e+01 5.721779352840e-01 
3.125000000000e+01 5.721779352840e-01 
3.127500000000e+01 5.690811209785e-01 
3.127500000000e+01 5.690811209785e-01 
3.127500000000e+01 5.690811209785e-01 
3.127500000000e+01 5.690811209785e-01 
3.127500000000e+01 5.690811209785e-01 
3.130000000000e+01 5.660556043336e-01 
3.130000000000e+01 5.660556043336e-01 
3.130000000000e+01 5.660556043336e-01 
3.130000000000e+01 5.660556043336e-01 
3.130000000000e+01 5.660556043336e-01 
3.132500000000e+01 5.630986129391e-01 
3.132500000000e+01 5.630986129391e-01 
3.132500000000e+01 5.630986129391e-01 
3.132500000000e+01 5.630986129391e-01 
3.132500000000e+01 5.630986129391e-01 
3.135000000000e+01 5.602075233904e-01 
3.135000000000e+01 5.602075233904e-01 
3.135000000000e+01 5.602075233904e-01 
3.135000000000e+01 5.602075233904e-01 
3.135000000000e+01 5.602075233904e-01 
3.137500000000e+01 5.573798512060e-01 
3.137500000000e+01 5.573798512060e-01 
3.137500000000e+01 5.573798512060e-01 
3.137500000000e+01 5.573798512060e-01 
3.137500000000e+01 5.573798512060e-01 
3.140000000000e+01 5.546132415581e-01 
3.140000000000e+01 5.546132415581e-01 
3.140000000000e+01 5.546132415581e-01 
3.140000000000e+01 5.546132415581e-01 
3.140000000000e+01 5.546132415581e-01 
3.142500000000e+01 5.519054607414e-01 
3.142500000000e+01 5.519054607414e-01 
3.142500000000e+01 5.519054607414e-01 
3.142500000000e+01 5.519054607414e-01 
3.142500000000e+01 5.519054607414e-01 
3.145000000000e+01 5.492543883110e-01 
3.145000000000e+01 5.492543883110e-01 
3.145000000000e+01 5.492543883110e-01 
3.145000000000e+01 5.492543883110e-01 
3.145000000000e+01 5.492543883110e-01 
3.147500000000e+01 5.466580098318e-01 
3.147500000000e+01 5.466580098318e-01 
3.147500000000e+01 5.466580098318e-01 
3.147500000000e+01 5.466580098318e-01 
3.147500000000e+01 5.466580098318e-01 
3.150000000000e+01 5.441144101810e-01 
3.150000000000e+01 5.441144101810e-01 
3.150000000000e+01 5.441144101810e-01 
3.150000000000e+01 5.441144101810e-01 
3.150000000000e+01 5.441144101810e-01 
3.152500000000e+01 5.416217673588e-01 
3.152500000000e+01 5.416217673588e-01 
3.152500000000e+01 5.416217673588e-01 
3.152500000000e+01 5.416217673588e-01 
3.152500000000e+01 5.416217673588e-01 
3.155000000000e+01 5.391783467591e-01 
3.155000000000e+01 5.391783467591e-01 
3.155000000000e+01 5.391783467591e-01 
3.155000000000e+01 5.391783467591e-01 
3.155000000000e+01 5.391783467591e-01 
3.157500000000e+01 5.367824958643e-01 
3.157500000000e+01 5.367824958643e-01 
3.157500000000e+01 5.367824958643e-01 
3.157500000000e+01 5.367824958643e-01 
3.157500000000e+01 5.367824958643e-01 
3.160000000000e+01 5.344326393247e-01 
3.160000000000e+01 5.344326393247e-01 
3.160000000000e+01 5.344326393247e-01 
3.160000000000e+01 5.344326393247e-01 
3.160000000000e+01 5.344326393247e-01 
3.162500000000e+01 5.321272743928e-01 
3.162500000000e+01 5.321272743928e-01 
3.162500000000e+01 5.321272743928e-01 
3.162500000000e+01 5.321272743928e-01 
3.162500000000e+01 5.321272743928e-01 
3.165000000000e+01 5.298649666811e-01 
3.165000000000e+01 5.298649666811e-01 
3.165000000000e+01 5.298649666811e-01 
3.165000000000e+01 5.298649666811e-01 
3.165000000000e+01 5.298649666811e-01 
3.167500000000e+01 5.276443462180e-01 
3.167500000000e+01 5.276443462180e-01 
3.167500000000e+01 5.276443462180e-01 
3.167500000000e+01 5.276443462180e-01 
3.167500000000e+01 5.276443462180e-01 
3.170000000000e+01 5.254641037767e-01 
3.170000000000e+01 5.254641037767e-01 
3.170000000000e+01 5.254641037767e-01 
3.170000000000e+01 5.254641037767e-01 
3.170000000000e+01 5.254641037767e-01 
3.172500000000e+01 5.233229874560e-01 
3.172500000000e+01 5.233229874560e-01 
3.172500000000e+01 5.233229874560e-01 
3.172500000000e+01 5.233229874560e-01 
3.172500000000e+01 5.233229874560e-01 
3.175000000000e+01 5.212197994921e-01 
3.175000000000e+01 5.212197994921e-01 
3.175000000000e+01 5.212197994921e-01 
3.175000000000e+01 5.212197994921e-01 
3.175000000000e+01 5.212197994921e-01 
3.177500000000e+01 5.191533932842e-01 
3.177500000000e+01 5.191533932842e-01 
3.177500000000e+01 5.191533932842e-01 
3.177500000000e+01 5.191533932842e-01 
3.177500000000e+01 5.191533932842e-01 
3.180000000000e+01 5.171226706164e-01 
3.180000000000e+01 5.171226706164e-01 
3.180000000000e+01 5.171226706164e-01 
3.180000000000e+01 5.171226706164e-01 
3.180000000000e+01 5.171226706164e-01 
3.182500000000e+01 5.151265790614e-01 
3.182500000000e+01 5.151265790614e-01 
3.182500000000e+01 5.151265790614e-01 
3.182500000000e+01 5.151265790614e-01 
3.182500000000e+01 5.151265790614e-01 
3.185000000000e+01 5.131641095520e-01 
3.185000000000e+01 5.131641095520e-01 
3.185000000000e+01 5.131641095520e-01 
3.185000000000e+01 5.131641095520e-01 
3.185000000000e+01 5.131641095520e-01 
3.187500000000e+01 5.112342941078e-01 
3.187500000000e+01 5.112342941078e-01 
3.187500000000e+01 5.112342941078e-01 
3.187500000000e+01 5.112342941078e-01 
3.187500000000e+01 5.112342941078e-01 
3.190000000000e+01 5.093362037054e-01 
3.190000000000e+01 5.093362037054e-01 
3.190000000000e+01 5.093362037054e-01 
3.190000000000e+01 5.093362037054e-01 
3.190000000000e+01 5.093362037054e-01 
3.192500000000e+01 5.074689462822e-01 
3.192500000000e+01 5.074689462822e-01 
3.192500000000e+01 5.074689462822e-01 
3.192500000000e+01 5.074689462822e-01 
3.192500000000e+01 5.074689462822e-01 
3.195000000000e+01 5.056316648631e-01 
3.195000000000e+01 5.056316648631e-01 
3.195000000000e+01 5.056316648631e-01 
3.195000000000e+01 5.056316648631e-01 
3.195000000000e+01 5.056316648631e-01 
3.197500000000e+01 5.038235358020e-01 
3.197500000000e+01 5.038235358020e-01 
3.197500000000e+01 5.038235358020e-01 
3.197500000000e+01 5.038235358020e-01 
3.197500000000e+01 5.038235358020e-01 
3.200000000000e+01 5.012312320336e-01 
3.200000000000e+01 5.012368150141e-01 
3.200000000000e+01 5.012383993299e-01 
3.200000000000e+01 5.012340252348e-01 
3.200000000000e+01 5.012397920713e-01 
3.299813622882e+01 4.468314259916e-01 
3.299913657111e+01 4.467878640608e-01 
3.300027381687e+01 4.467383611145e-01 
3.300227442642e+01 4.466513347032e-01 
3.300427503597e+01 4.465643815563e-01 
3.399627245765e+01 4.123579756289e-01 
3.399827314221e+01 4.122992163733e-01 
3.400054763375e+01 4.122324594053e-01 
3.400454885284e+01 4.121151446534e-01 
3.400855007193e+01 4.119979848267e-01 
3.499440868647e+01 3.874334008502e-01 
3.499740971332e+01 3.873678078603e-01 
3.500082145062e+01 3.872932972544e-01 
3.500682327926e+01 3.871623851699e-01 
3.501282510790e+01 3.870316820024e-01 
3.599254491529e+01 3.682442091622e-01 
3.599654628443e+01 3.681754410203e-01 
3.600109526749e+01 3.680973307415e-01 
3.600909770568e+01 3.679601140557e-01 
3.601710014387e+01 3.678231415110e-01 
3.699068114412e+01 3.528127649579e-01 
3.699568285553e+01 3.527426094203e-01 
3.700136908436e+01 3.526629285041e-01 
3.701137213210e+01 3.525229672168e-01 
3.702137517984e+01 3.523832733600e-01 
 TITLE = "Profiles along polylines"
 VARIABLES = "DIST" "SATURATION1" 
 ZONE T="TIME=1.797693134862e+308"
1.990681144115e+00 1.000000000000e+00 
1.995682855533e+00 1.000000000000e+00 
2.001369084364e+00 1.000000000000e+00 
2.011372132101e+00 1.000000000000e+00 
2.021375179838e+00 1.000000000000e+00 
2.924325105978e+00 1.000000000000e+00 
2.929160093682e+00 1.000000000000e+00 
2.934656781552e+00 1.000000000000e+00 
2.944326394364e+00 1.000000000000e+00 
2.953996007176e+00 1.000000000000e+00 
3.857969067840e+00 1.000000000000e+00 
3.862637331830e+00 1.000000000000e+00 
3.867944478739e+00 1.000000000000e+00 
3.877280656627e+00 1.000000000000e+00 
3.886616834514e+00 1.000000000000e+00 
4.791613029704e+00 1.000000000000e+00 
4.796114569979e+00 1.000000000000e+00 
4.801232175927e+00 1.000000000000e+00 
4.810234918890e+00 1.000000000000e+00 
4.819237661854e+00 1.000000000000e+00 
5.725256991567e+00 1.000000000000e+00 
5.729591808128e+00 1.000000000000e+00 
5.734519873115e+00 1.000000000000e+00 
5.743189181154e+00 1.000000000000e+00 
5.751858489192e+00 1.000000000000e+00 
6.658900953429e+00 1.000000000000e+00 
6.663069046276e+00 1.000000000000e+00 
6.667807570302e+00 1.000000000000e+00 
6.676143443416e+00 1.000000000000e+00 
6.684479316530e+00 1.000000000000e+00 
7.592544915291e+00 1.000000000000e+00 
7.596546284425e+00 1.000000000000e+00 
7.601095267490e+00 1.000000000000e+00 
7.609097705679e+00 1.000000000000e+00 
7.617100143868e+00 1.000000000000e+00 
8.526188877153e+00 1.000000000000e+00 
8.530023522573e+00 1.000000000000e+00 
8.534382964677e+00 1.000000000000e+00 
8.542051967942e+00 1.000000000000e+00 
8.549720971207e+00 1.000000000000e+00 
9.459832839015e+00 1.000000000000e+00 
9.463500760721e+00 1.000000000000e+00 
9.467670661864e+00 1.000000000000e+00 
9.475006230204e+00 1.000000000000e+00 
9.482341798544e+00 1.000000000000e+00 
1.039347680087e+01 1.000000000000e+00 
1.039697799887e+01 1.000000000000e+00 
1.040095835905e+01 1.000000000000e+00 
1.040796049246e+01 1.000000000000e+00 
1.041496262588e+01 1.000000000000e+00 
1.132712076273e+01 1.000000000000e+00 
1.133045523701e+01 1.000000000000e+00 
1.133424605623e+01 1.000000000000e+00 
1.134091475472e+01 1.000000000000e+00 
1.134758345322e+01 1.000000000000e+00 
1.226076472459e+01 1.000000000000e+00 
1.226393247516e+01 1.000000000000e+00 
1.226753375342e+01 1.000000000000e+00 
1.227386901698e+01 1.000000000000e+00 
1.228020428055e+01 1.000000000000e+00 
1.319440868645e+01 1.000000000000e+00 
1.319740971330e+01 1.000000000000e+00 
1.320082145060e+01 1.000000000000e+00 
1.320682327925e+01 1.000000000000e+00 
1.321282510789e+01 1.000000000000e+00 
1.412805264831e+01 1.000000000000e+00 
1.413088695145e+01 1.000000000000e+00 
1.413410914779e+01 1.000000000000e+00 
1.413977754151e+01 1.000000000000e+00 
1.414544593522e+01 1.000000000000e+00 
1.506169661017e+01 1.000000000000e+00 
1.506436418960e+01 1.000000000000e+00 
1.506739684497e+01 1.000000000000e+00 
1.507273180377e+01 1.000000000000e+00 
1.507806676256e+01 1.000000000000e+00 
1.599534057203e+01 1.000000000000e+00 
1.599784142774e+01 1.000000000000e+00 
1.600068454216e+01 1.000000000000e+00 
1.600568606603e+01 1.000000000000e+00 
1.601068758989e+01 1.000000000000e+00 
1.692898453390e+01 1.000000000000e+00 
1.693131866589e+01 1.000000000000e+00 
1.693397223935e+01 1.000000000000e+00 
1.693864032829e+01 1.000000000000e+00 
1.694330841723e+01 1.000000000000e+00 
1.786262849576e+01 1.000000000000e+00 
1.786479590404e+01 1.000000000000e+00 
1.786725993654e+01 1.000000000000e+00 
1.787159459056e+01 1.000000000000e+00 
1.787592924458e+01 1.000000000000e+00 
1.879627245763e+01 1.000000000000e+00 
1.879827314219e+01 1.000000000000e+00 
1.880054763373e+01 1.000000000000e+00 
1.880454885282e+01 1.000000000000e+00 
1.880855007192e+01 1.000000000000e+00 
1.972991641949e+01 1.000000000000e+00 
1.973175038034e+01 1.000000000000e+00 
1.973383533092e+01 1.000000000000e+00 
1.973750311509e+01 1.000000000000e+00 
1.974117089926e+01 1.000000000000e+00 
2.066356038136e+01 1.000000000000e+00 
2.066522761849e+01 1.000000000000e+00 
2.066712302810e+01 1.000000000000e+00 
2.067045737735e+01 1.000000000000e+00 
2.067379172660e+01 1.000000000000e+00 
2.159720434322e+01 1.000000000000e+00 
2.159870485665e+01 1.000000000000e+00 
2.160041072529e+01 1.000000000000e+00 
2.160341163962e+01 1.000000000000e+00 
2.160641255394e+01 1.000000000000e+00 
2.253084830508e+01 1.000000000000e+00 
2.253218209480e+01 1.000000000000e+00 
2.253369842248e+01 1.000000000000e+00 
2.253636590188e+01 1.000000000000e+00 
2.253903338128e+01 1.000000000000e+00 
2.346449226695e+01 1.000000000000e+00 
2.346565933295e+01 1.000000000000e+00 
2.346698611967e+01 1.000000000000e+00 
2.346932016415e+01 1.000000000000e+00 
2.347165420862e+01 1.000000000000e+00 
2.439813622881e+01 1.000000000000e+00 
2.439913657110e+01 1.000000000000e+00 
2.440027381686e+01 1.000000000000e+00 
2.440227442641e+01 1.000000000000e+00 
2.440427503596e+01 1.000000000000e+00 
2.533178019068e+01 1.000000000000e+00 
2.533261380925e+01 1.000000000000e+00 
2.533356151405e+01 1.000000000000e+00 
2.533522868868e+01 1.000000000000e+00 
2.533689586330e+01 1.000000000000e+00 
2.626542415254e+01 1.000000000000e+00 
2.626609104740e+01 1.000000000000e+00 
2.626684921124e+01 1.000000000000e+00 
2.626818295094e+01 1.000000000000e+00 
2.626951669064e+01 1.000000000000e+00 
2.719906811441e+01 1.000000000000e+00 
2.719956828555e+01 1.000000000000e+00 
2.720013690843e+01 1.000000000000e+00 
2.720113721321e+01 1.000000000000e+00 
2.720213751798e+01 1.000000000000e+00 
2.813271207627e+01 1.000000000000e+00 
2.813304552370e+01 1.000000000000e+00 
2.813342460562e+01 1.000000000000e+00 
2.813409147547e+01 1.000000000000e+00 
2.813475834532e+01 1.000000000000e+00 
2.906635603814e+01 1.000000000000e+00 
2.906652276185e+01 1.000000000000e+00 
2.906671230281e+01 1.000000000000e+00 
2.906704573774e+01 1.000000000000e+00 
2.906737917266e+01 1.000000000000e+00 
3.000000000000e+01 1.000000000000e+00 
3.000000000000e+01 1.000000000000e+00 
3.000000000000e+01 1.000000000000e+00 
3.000000000000e+01 1.000000000000e+00 
3.000000000000e+01 1.000000000000e+00 
3.002500000000e+01 1.000000000000e+00 
3.002500000000e+01 1.000000000000e+00 
3.002500000000e+01 1.000000000000e+00 
3.002500000000e+01 1.000000000000e+00 
3.002500000000e+01 1.000000000000e+00 
3.005000000000e+01 1.000000000000e+00 
3.005000000000e+01 1.000000000000e+00 
3.005000000000e+01 1.000000000000e+00 
3.005000000000e+01 1.000000000000e+00 
3.005000000000e+01 1.000000000000e+00 
3.007500000000e+01 1.000000000000e+00 
3.007500000000e+01 1.000000000000e+00 
3.007500000000e+01 1.000000000000e+00 
3.007500000000e+01 1.000000000000e+00 
3.007500000000e+01 1.000000000000e+00 
3.010000000000e+01 1.000000000000e+00 
3.010000000000e+01 1.000000000000e+00 
3.010000000000e+01 1.000000000000e+00 
3.010000000000e+01 1.000000000000e+00 
3.010000000000e+01 1.000000000000e+00 
3.012500000000e+01 1.000000000000e+00 
3.012500000000e+01 1.000000000000e+00 
3.012500000000e+01 1.000000000000e+00 
3.012500000000e+01 1.000000000000e+00 
3.012500000000e+01 1.000000000000e+00 
3.015000000000e+01 1.000000000000e+00 
3.015000000000e+01 1.000000000000e+00 
3.015000000000e+01 1.000000000000e+00 