 TITLE = "Profiles along polylines"
 VARIABLES = "DIST" "SATURATION1" 
 ZONE T="TIME=0.000000000000e+00"
1.814017682714e+01 1.000000000000e+00 
1.817017397509e+01 1.000000000000e+00 
1.820017112304e+01 1.000000000000e+00 
1.823016827098e+01 1.000000000000e+00 
1.826016541893e+01 1.000000000000e+00 
1.853550426623e+01 1.000000000000e+00 
1.856450150925e+01 1.000000000000e+00 
1.859349875227e+01 1.000000000000e+00 
1.862249599529e+01 1.000000000000e+00 
1.865149323830e+01 1.000000000000e+00 
1.893083170533e+01 1.000000000000e+00 
1.895882904341e+01 1.000000000000e+00 
1.898682638150e+01 1.000000000000e+00 
1.901482371959e+01 1.000000000000e+00 
1.904282105767e+01 1.000000000000e+00 
1.932615914442e+01 1.000000000000e+00 
1.935315657758e+01 1.000000000000e+00 
1.938015401073e+01 1.000000000000e+00 
1.940715144389e+01 1.000000000000e+00 
1.943414887704e+01 1.000000000000e+00 
1.972148658352e+01 1.000000000000e+00 
1.974748411174e+01 1.000000000000e+00 
1.977348163996e+01 1.000000000000e+00 
1.979947916819e+01 1.000000000000e+00 
1.982547669641e+01 1.000000000000e+00 
2.011681402261e+01 1.000000000000e+00 
2.014181164590e+01 1.000000000000e+00 
2.016680926920e+01 1.000000000000e+00 
2.019180689249e+01 1.000000000000e+00 
2.021680451578e+01 1.000000000000e+00 
2.051214146171e+01 1.000000000000e+00 
2.053613918007e+01 1.000000000000e+00 
2.056013689843e+01 1.000000000000e+00 
2.058413461679e+01 1.000000000000e+00 
2.060813233515e+01 1.000000000000e+00 
2.090746890080e+01 1.000000000000e+00 
2.093046671423e+01 1.000000000000e+00 
2.095346452766e+01 1.000000000000e+00 
2.097646234109e+01 1.000000000000e+00 
2.099946015452e+01 1.000000000000e+00 
2.130279633990e+01 1.000000000000e+00 
2.132479424840e+01 1.000000000000e+00 
2.134679215689e+01 1.000000000000e+00 
2.136879006539e+01 1.000000000000e+00 
2.139078797388e+01 1.000000000000e+00 
2.169812377899e+01 1.000000000000e+00 
2.171912178256e+01 1.000000000000e+00 
2.174011978612e+01 1.000000000000e+00 
2.176111778969e+01 1.000000000000e+00 
2.178211579325e+01 1.000000000000e+00 
2.209345121809e+01 1.000000000000e+00 
2.211344931672e+01 1.000000000000e+00 
2.213344741536e+01 1.000000000000e+00 
2.215344551399e+01 1.000000000000e+00 
2.217344361262e+01 1.000000000000e+00 
2.248877865719e+01 1.000000000000e+00 
2.250777685089e+01 1.000000000000e+00 
2.252677504459e+01 1.000000000000e+00 
2.254577323829e+01 1.000000000000e+00 
2.256477143199e+01 1.000000000000e+00 
2.288410609628e+01 1.000000000000e+00 
2.290210438505e+01 1.000000000000e+00 
2.292010267382e+01 1.000000000000e+00 
2.293810096259e+01 1.000000000000e+00 
2.295609925136e+01 1.000000000000e+00 
2.327943353538e+01 1.000000000000e+00 
2.329643191921e+01 1.000000000000e+00 
2.331343030305e+01 1.000000000000e+00 
2.333042868689e+01 1.000000000000e+00 
2.334742707073e+01 1.000000000000e+00 
2.367476097447e+01 1.000000000000e+00 
2.369075945338e+01 1.000000000000e+00 
2.370675793228e+01 1.000000000000e+00 
2.372275641119e+01 1.000000000000e+00 
2.373875489010e+01 1.000000000000e+00 
2.407008841357e+01 1.000000000000e+00 
2.408508698754e+01 1.000000000000e+00 
2.410008556152e+01 1.000000000000e+00 
2.411508413549e+01 1.000000000000e+00 
2.413008270946e+01 1.000000000000e+00 
2.446541585266e+01 1.000000000000e+00 
2.447941452170e+01 1.000000000000e+00 
2.449341319075e+01 1.000000000000e+00 
2.450741185979e+01 1.000000000000e+00 
2.452141052883e+01 1.000000000000e+00 
2.486074329176e+01 1.000000000000e+00 
2.487374205587e+01 1.000000000000e+00 
2.488674081998e+01 1.000000000000e+00 
2.489973958409e+01 1.000000000000e+00 
2.491273834820e+01 1.000000000000e+00 
2.525607073085e+01 1.000000000000e+00 
2.526806959003e+01 1.000000000000e+00 
2.528006844921e+01 1.000000000000e+00 
2.529206730839e+01 1.000000000000e+00 
2.530406616757e+01 1.000000000000e+00 
2.565139816995e+01 1.000000000000e+00 
2.566239712420e+01 1.000000000000e+00 
2.567339607844e+01 1.000000000000e+00 
2.568439503269e+01 1.000000000000e+00 
2.569539398694e+01 1.000000000000e+00 
2.604672560904e+01 1.000000000000e+00 
2.605672465836e+01 1.000000000000e+00 
2.606672370768e+01 1.000000000000e+00 
2.607672275699e+01 1.000000000000e+00 
2.608672180631e+01 1.000000000000e+00 
2.644205304814e+01 1.000000000000e+00 
2.645105219252e+01 1.000000000000e+00 
2.646005133691e+01 1.000000000000e+00 
2.646905048129e+01 1.000000000000e+00 
2.647804962568e+01 1.000000000000e+00 
2.683738048724e+01 1.000000000000e+00 
2.684537972669e+01 1.000000000000e+00 
2.685337896614e+01 1.000000000000e+00 
2.686137820559e+01 1.000000000000e+00 
2.686937744505e+01 1.000000000000e+00 
2.723270792633e+01 1.000000000000e+00 
2.723970726085e+01 1.000000000000e+00 
2.724670659537e+01 1.000000000000e+00 
2.725370592990e+01 1.000000000000e+00 
2.726070526442e+01 1.000000000000e+00 
2.762803536543e+01 1.000000000000e+00 
2.763403479502e+01 1.000000000000e+00 
2.764003422461e+01 1.000000000000e+00 
2.764603365420e+01 1.000000000000e+00 
2.765203308379e+01 1.000000000000e+00 
2.802336280452e+01 1.000000000000e+00 
2.802836232918e+01 1.000000000000e+00 
2.803336185384e+01 1.000000000000e+00 
2.803836137850e+01 1.000000000000e+00 
2.804336090315e+01 1.000000000000e+00 
2.841869024362e+01 1.000000000000e+00 
2.842268986334e+01 1.000000000000e+00 
2.842668948307e+01 1.000000000000e+00 
2.843068910280e+01 1.000000000000e+00 
2.843468872252e+01 1.000000000000e+00 
2.881401768271e+01 1.000000000000e+00 
2.881701739751e+01 1.000000000000e+00 
2.882001711230e+01 1.000000000000e+00 
2.882301682710e+01 1.000000000000e+00 
2.882601654189e+01 1.000000000000e+00 
2.920934512181e+01 1.000000000000e+00 
2.921134493167e+01 1.000000000000e+00 
2.921334474154e+01 1.000000000000e+00 
2.921534455140e+01 1.000000000000e+00 
2.921734436126e+01 1.000000000000e+00 
2.960467256090e+01 1.000000000000e+00 
2.960567246584e+01 1.000000000000e+00 
2.960667237077e+01 1.000000000000e+00 
2.960767227570e+01 1.000000000000e+00 
2.960867218063e+01 1.000000000000e+00 
3.000000000000e+01 1.000000000000e+00 
3.000000000000e+01 1.000000000000e+00 
3.000000000000e+01 1.000000000000e+00 
3.000000000000e+01 1.000000000000e+00 
3.000000000000e+01 1.000000000000e+00 
3.002500000000e+01 9.876207709446e-01 
3.002500000000e+01 9.876207709446e-01 
3.002500000000e+01 9.876207709446e-01 
3.002500000000e+01 9.876207709446e-01 
3.002500000000e+01 9.876207709446e-01 
3.005000000000e+01 9.697756439369e-01 
3.005000000000e+01 9.697756439369e-01 
3.005000000000e+01 9.697756439369e-01 
3.005000000000e+01 9.697756439369e-01 
3.005000000000e+01 9.697756439369e-01 
3.007500000000e+01 9.507134089444e-01 
3.007500000000e+01 9.507134089444e-01 
3.007500000000e+01 9.507134089444e-01 
3.007500000000e+01 9.507134089444e-01 
3.007500000000e+01 9.507134089444e-01 
3.010000000000e+01 9.315621650298e-01 
3.010000000000e+01 9.315621650298e-01 
3.010000000000e+01 9.315621650298e-01 
3.010000000000e+01 9.315621650298e-01 
3.010000000000e+01 9.315621650298e-01 
3.012500000000e+01 9.128758324042e-01 
3.012500000000e+01 9.128758324042e-01 
3.012500000000e+01 9.128758324042e-01 
3.012500000000e+01 9.128758324042e-01 
3.012500000000e+01 9.128758324042e-01 
3.015000000000e+01 8.949248043380e-01 
3.015000000000e+01 8.949248043380e-01 
3.015000000000e+01 8.949248043380e-01 
3.015000000000e+01 8.949248043380e-01 
3.015000000000e+01 8.949248043380e-01 
3.017500000000e+01 8.778290027968e-01 
3.017500000000e+01 8.778290027968e-01 
3.017500000000e+01 8.778290027968e-01 
3.017500000000e+01 8.778290027968e-01 
3.017500000000e+01 8.778290027968e-01 
3.020000000000e+01 8.616255702900e-01 
3.020000000000e+01 8.616255702900e-01 
3.020000000000e+01 8.616255702900e-01 
3.020000000000e+01 8.616255702900e-01 
3.020000000000e+01 8.616255702900e-01 
3.022500000000e+01 8.463059583920e-01 
3.022500000000e+01 8.463059583920e-01 
3.022500000000e+01 8.463059583920e-01 
3.022500000000e+01 8.463059583920e-01 
3.022500000000e+01 8.463059583920e-01 
3.025000000000e+01 8.318370344398e-01 
3.025000000000e+01 8.318370344398e-01 
3.025000000000e+01 8.318370344398e-01 
3.025000000000e+01 8.318370344398e-01 
3.025000000000e+01 8.318370344398e-01 
3.027500000000e+01 8.181733156316e-01 
3.027500000000e+01 8.181733156316e-01 
3.027500000000e+01 8.181733156316e-01 
3.027500000000e+01 8.181733156316e-01 
3.027500000000e+01 8.181733156316e-01 
3.030000000000e+01 8.052640970350e-01 
3.030000000000e+01 8.052640970350e-01 
3.030000000000e+01 8.052640970350e-01 
3.030000000000e+01 8.052640970350e-01 
3.030000000000e+01 8.052640970350e-01 
3.032500000000e+01 7.930575753856e-01 
3.032500000000e+01 7.930575753856e-01 
3.032500000000e+01 7.930575753856e-01 
3.032500000000e+01 7.930575753856e-01 
3.032500000000e+01 7.930575753856e-01 
3.035000000000e+01 7.815031815402e-01 
3.035000000000e+01 7.815031815402e-01 
3.035000000000e+01 7.815031815402e-01 
3.035000000000e+01 7.815031815402e-01 
3.035000000000e+01 7.815031815402e-01 
3.037500000000e+01 7.705528376764e-01 
3.037500000000e+01 7.705528376764e-01 
3.037500000000e+01 7.705528376764e-01 
3.037500000000e+01 7.705528376764e-01 
3.037500000000e+01 7.705528376764e-01 
3.040000000000e+01 7.601615689674e-01 
3.040000000000e+01 7.601615689674e-01 
3.040000000000e+01 7.601615689674e-01 
3.040000000000e+01 7.601615689674e-01 
3.040000000000e+01 7.601615689674e-01 
3.042500000000e+01 7.502877306002e-01 
3.042500000000e+01 7.502877306002e-01 
3.042500000000e+01 7.502877306002e-01 
3.042500000000e+01 7.502877306002e-01 
3.042500000000e+01 7.502877306002e-01 
3.045000000000e+01 7.408930096824e-01 
3.045000000000e+01 7.408930096824e-01 
3.045000000000e+01 7.408930096824e-01 
3.045000000000e+01 7.408930096824e-01 
3.045000000000e+01 7.408930096824e-01 
3.047500000000e+01 7.319422999608e-01 
3.047500000000e+01 7.319422999608e-01 
3.047500000000e+01 7.319422999608e-01 
3.047500000000e+01 7.319422999608e-01 
3.047500000000e+01 7.319422999608e-01 
3.050000000000e+01 7.234035093991e-01 
3.050000000000e+01 7.234035093991e-01 
3.050000000000e+01 7.234035093991e-01 
3.050000000000e+01 7.234035093991e-01 
3.050000000000e+01 7.234035093991e-01 
3.052500000000e+01 7.152473371957e-01 
3.052500000000e+01 7.152473371957e-01 
3.052500000000e+01 7.152473371957e-01 
3.052500000000e+01 7.152473371957e-01 
3.052500000000e+01 7.152473371957e-01 
3.055000000000e+01 7.074470422112e-01 
3.055000000000e+01 7.074470422112e-01 
3.055000000000e+01 7.074470422112e-01 
3.055000000000e+01 7.074470422112e-01 
3.055000000000e+01 7.074470422112e-01 
3.057500000000e+01 6.999782156504e-01 
3.057500000000e+01 6.999782156504e-01 
3.057500000000e+01 6.999782156504e-01 
3.057500000000e+01 6.999782156504e-01 
3.057500000000e+01 6.999782156504e-01 
3.060000000000e+01 6.928185651596e-01 
3.060000000000e+01 6.928185651596e-01 
3.060000000000e+01 6.928185651596e-01 
3.060000000000e+01 6.928185651596e-01 
3.060000000000e+01 6.928185651596e-01 
3.062500000000e+01 6.859477139679e-01 
3.062500000000e+01 6.859477139679e-01 
3.062500000000e+01 6.859477139679e-01 
3.062500000000e+01 6.859477139679e-01 
3.062500000000e+01 6.859477139679e-01 
3.065000000000e+01 6.793470165436e-01 
3.065000000000e+01 6.793470165436e-01 
3.065000000000e+01 6.793470165436e-01 
3.065000000000e+01 6.793470165436e-01 
3.065000000000e+01 6.793470165436e-01 
3.067500000000e+01 6.729993909360e-01 
3.067500000000e+01 6.729993909360e-01 
3.067500000000e+01 6.729993909360e-01 
3.067500000000e+01 6.729993909360e-01 
3.067500000000e+01 6.729993909360e-01 
3.070000000000e+01 6.668891672206e-01 
3.070000000000e+01 6.668891672206e-01 
3.070000000000e+01 6.668891672206e-01 
3.070000000000e+01 6.668891672206e-01 
3.070000000000e+01 6.668891672206e-01 
3.072500000000e+01 6.610019510587e-01 
3.072500000000e+01 6.610019510587e-01 
3.072500000000e+01 6.610019510587e-01 
3.072500000000e+01 6.610019510587e-01 
3.072500000000e+01 6.610019510587e-01 
3.075000000000e+01 6.553245011865e-01 
3.075000000000e+01 6.553245011865e-01 
3.075000000000e+01 6.553245011865e-01 
3.075000000000e+01 6.553245011865e-01 
3.075000000000e+01 6.553245011865e-01 
3.077500000000e+01 6.498446195878e-01 
3.077500000000e+01 6.498446195878e-01 
3.077500000000e+01 6.498446195878e-01 
3.077500000000e+01 6.498446195878e-01 
3.077500000000e+01 6.498446195878e-01 
3.080000000000e+01 6.445510531188e-01 
3.080000000000e+01 6.445510531188e-01 
3.080000000000e+01 6.445510531188e-01 
3.080000000000e+01 6.445510531188e-01 
3.080000000000e+01 6.445510531188e-01 
3.082500000000e+01 6.394334054150e-01 
3.082500000000e+01 6.394334054150e-01 
3.082500000000e+01 6.394334054150e-01 
3.082500000000e+01 6.394334054150e-01 
3.082500000000e+01 6.394334054150e-01 
3.085000000000e+01 6.344820579917e-01 
3.085000000000e+01 6.344820579917e-01 
3.085000000000e+01 6.344820579917e-01 
3.085000000000e+01 6.344820579917e-01 
3.085000000000e+01 6.344820579917e-01 
3.087500000000e+01 6.296880995462e-01 
3.087500000000e+01 6.296880995462e-01 
3.087500000000e+01 6.296880995462e-01 
3.087500000000e+01 6.296880995462e-01 
3.087500000000e+01 6.296880995462e-01 
3.090000000000e+01 6.250432625624e-01 
3.090000000000e+01 6.250432625624e-01 
3.090000000000e+01 6.250432625624e-01 
3.090000000000e+01 6.250432625624e-01 
3.090000000000e+01 6.250432625624e-01 
3.092500000000e+01 6.205398664126e-01 
3.092500000000e+01 6.205398664126e-01 
3.092500000000e+01 6.205398664126e-01 
3.092500000000e+01 6.205398664126e-01 
3.092500000000e+01 6.205398664126e-01 
3.095000000000e+01 6.161707662369e-01 
3.095000000000e+01 6.161707662369e-01 
3.095000000000e+01 6.161707662369e-01 
3.095000000000e+01 6.161707662369e-01 
3.095000000000e+01 6.161707662369e-01 
3.097500000000e+01 6.119293069613e-01 
3.097500000000e+01 6.119293069613e-01 
3.097500000000e+01 6.119293069613e-01 
3.097500000000e+01 6.119293069613e-01 
3.097500000000e+01 6.119293069613e-01 
3.100000000000e+01 6.078092818871e-01 
3.100000000000e+01 6.078092818871e-01 
3.100000000000e+01 6.078092818871e-01 
3.100000000000e+01 6.078092818871e-01 
3.100000000000e+01 6.078092818871e-01 
3.102500000000e+01 6.038048953494e-01 
3.102500000000e+01 6.038048953494e-01 
3.102500000000e+01 6.038048953494e-01 
3.102500000000e+01 6.038048953494e-01 
3.102500000000e+01 6.038048953494e-01 
3.105000000000e+01 5.999107290013e-01 
3.105000000000e+01 5.999107290013e-01 
3.105000000000e+01 5.999107290013e-01 
3.105000000000e+01 5.999107290013e-01 
3.105000000000e+01 5.999107290013e-01 
3.107500000000e+01 5.961217113309e-01 
3.107500000000e+01 5.961217113309e-01 
3.107500000000e+01 5.961217113309e-01 
3.107500000000e+01 5.961217113309e-01 
3.107500000000e+01 5.961217113309e-01 
3.110000000000e+01 5.924330900627e-01 
3.110000000000e+01 5.924330900627e-01 
3.110000000000e+01 5.924330900627e-01 
3.110000000000e+01 5.924330900627e-01 
3.110000000000e+01 5.924330900627e-01 
3.112500000000e+01 5.888404071392e-01 
3.112500000000e+01 5.888404071392e-01 
3.112500000000e+01 5.888404071392e-01 
3.112500000000e+01 5.888404071392e-01 
3.112500000000e+01 5.888404071392e-01 
3.115000000000e+01 5.853394760078e-01 
3.115000000000e+01 5.853394760078e-01 
3.115000000000e+01 5.853394760078e-01 
3.115000000000e+01 5.853394760078e-01 
3.115000000000e+01 5.853394760078e-01 
3.117500000000e+01 5.819263609758e-01 
3.117500000000e+01 5.819263609758e-01 
3.117500000000e+01 5.819263609758e-01 
3.117500000000e+01 5.819263609758e-01 
3.117500000000e+01 5.819263609758e-01 
3.120000000000e+01 5.785973584173e-01 
3.120000000000e+01 5.785973584173e-01 
3.120000000000e+01 5.785973584173e-01 
3.120000000000e+01 5.785973584173e-01 
3.120000000000e+01 5.785973584173e-01 
3.122500000000e+01 5.753489796460e-01 
3.122500000000e+01 5.753489796460e-01 
3.122500000000e+01 5.753489796460e-01 
3.122500000000e+01 5.753489796460e-01 
3.122500000000e+01 5.753489796460e-01 
3.125000000000e+01 5.721779352840e-01 
3.125000000000e+01 5.721779352840e-01 
3.125000000000e+01 5.721779352840e-01 
3.125000000000e+01 5.721779352840e-01 
3.125000000000e+01 5.721779352840e-01 
3.127500000000e+01 5.690811209785e-01 
3.127500000000e+01 5.690811209785e-01 
3.127500000000e+01 5.690811209785e-01 
3.127500000000e+01 5.690811209785e-01 
3.127500000000e+01 5.690811209785e-01 
3.130000000000e+01 5.660556043336e-01 
3.130000000000e+01 5.660556043336e-01 
3.130000000000e+01 5.660556043336e-01 
3.130000000000e+01 5.660556043336e-01 
3.130000000000e+01 5.660556043336e-01 
3.132500000000e+01 5.630986129391e-01 
3.132500000000e+01 5.630986129391e-01 
3.132500000000e+01 5.630986129391e-01 
3.132500000000e+01 5.630986129391e-01 
3.132500000000e+01 5.630986129391e-01 
3.135000000000e+01 5.602075233904e-01 
3.135000000000e+01 5.602075233904e-01 
3.135000000000e+01 5.602075233904e-01 
3.135000000000e+01 5.602075233904e-01 
3.135000000000e+01 5.602075233904e-01 
3.137500000000e+01 5.573798512060e-01 
3.137500000000e+01 5.573798512060e-01 
3.137500000000e+01 5.573798512060e-01 
3.137500000000e+01 5.573798512060e-01 
3.137500000000e+01 5.573798512060e-01 
3.140000000000e+01 5.546132415581e-01 
3.140000000000e+01 5.546132415581e-01 
3.140000000000e+01 5.546132415581e-01 
3.140000000000e+01 5.546132415581e-01 
3.140000000000e+01 5.546132415581e-01 
3.142500000000e+01 5.519054607414e-01 
3.142500000000e+01 5.519054607414e-01 
3.142500000000e+01 5.519054607414e-01 
3.142500000000e+01 5.519054607414e-01 
3.142500000000e+01 5.519054607414e-01 
3.145000000000e+01 5.492543883110e-01 
3.145000000000e+01 5.492543883110e-01 
3.145000000000e+01 5.492543883110e-01 
3.145000000000e+01 5.492543883110e-01 
3.145000000000e+01 5.492543883110e-01 
3.147500000000e+01 5.466580098318e-01 
3.147500000000e+01 5.466580098318e-01 
3.147500000000e+01 5.466580098318e-01 
3.147500000000e+01 5.466580098318e-01 
3.147500000000e+01 5.466580098318e-01 
3.150000000000e+01 5.441144101810e-01 
3.150000000000e+01 5.441144101810e-01 
3.150000000000e+01 5.441144101810e-01 
3.150000000000e+01 5.441144101810e-01 
3.150000000000e+01 5.441144101810e-01 
3.152500000000e+01 5.416217673588e-01 
3.152500000000e+01 5.416217673588e-01 
3.152500000000e+01 5.416217673588e-01 
3.152500000000e+01 5.416217673588e-01 
3.152500000000e+01 5.416217673588e-01 
3.155000000000e+01 5.391783467591e-01 
3.155000000000e+01 5.391783467591e-01 
3.155000000000e+01 5.391783467591e-01 
3.155000000000e+01 5.391783467591e-01 
3.155000000000e+01 5.391783467591e-01 
3.157500000000e+01 5.367824958643e-01 
3.157500000000e+01 5.367824958643e-01 
3.157500000000e+01 5.367824958643e-01 
3.157500000000e+01 5.367824958643e-01 
3.157500000000e+01 5.367824958643e-01 
3.160000000000e+01 5.344326393247e-01 
3.160000000000e+01 5.344326393247e-01 
3.160000000000e+01 5.344326393247e-01 
3.160000000000e+01 5.344326393247e-01 
3.160000000000e+01 5.344326393247e-01 
3.162500000000e+01 5.321272743928e-01 
3.162500000000e+01 5.321272743928e-01 
3.162500000000e+01 5.321272743928e-01 
3.162500000000e+01 5.321272743928e-01 
3.162500000000e+01 5.321272743928e-01 
3.165000000000e+01 5.298649666811e-01 
3.165000000000e+01 5.298649666811e-01 
3.165000000000e+01 5.298649666811e-01 
3.165000000000e+01 5.298649666811e-01 
3.165000000000e+01 5.298649666811e-01 
3.167500000000e+01 5.276443462180e-01 
3.167500000000e+01 5.276443462180e-01 
3.167500000000e+01 5.276443462180e-01 
3.167500000000e+01 5.276443462180e-01 
3.167500000000e+01 5.276443462180e-01 
3.170000000000e+01 5.254641037767e-01 
3.170000000000e+01 5.254641037767e-01 
3.170000000000e+01 5.254641037767e-01 
3.170000000000e+01 5.254641037767e-01 
3.170000000000e+01 5.254641037767e-01 
3.172500000000e+01 5.233229874560e-01 
3.172500000000e+01 5.233229874560e-01 
3.172500000000e+01 5.233229874560e-01 
3.172500000000e+01 5.233229874560e-01 
3.172500000000e+01 5.233229874560e-01 
3.175000000000e+01 5.212197994921e-01 
3.175000000000e+01 5.212197994921e-01 
3.175000000000e+01 5.212197994921e-01 
3.175000000000e+01 5.212197994921e-01 
3.175000000000e+01 5.212197994921e-01 
3.177500000000e+01 5.191533932842e-01 
3.177500000000e+01 5.191533932842e-01 
3.177500000000e+01 5.191533932842e-01 
3.177500000000e+01 5.191533932842e-01 
3.177500000000e+01 5.191533932842e-01 
3.180000000000e+01 5.171226706164e-01 
3.180000000000e+01 5.171226706164e-01 
3.180000000000e+01 5.171226706164e-01 
3.180000000000e+01 5.171226706164e-01 
3.180000000000e+01 5.171226706164e-01 
3.182500000000e+01 5.151265790614e-01 
3.182500000000e+01 5.151265790614e-01 
3.182500000000e+01 5.151265790614e-01 
3.182500000000e+01 5.151265790614e-01 
3.182500000000e+01 5.151265790614e-01 
3.185000000000e+01 5.131641095520e-01 
3.185000000000e+01 5.131641095520e-01 
3.185000000000e+01 5.131641095520e-01 
3.185000000000e+01 5.131641095520e-01 
3.185000000000e+01 5.131641095520e-01 
3.187500000000e+01 5.112342941078e-01 
3.187500000000e+01 5.112342941078e-01 
3.187500000000e+01 5.112342941078e-01 
3.187500000000e+01 5.112342941078e-01 
3.187500000000e+01 5.112342941078e-01 
3.190000000000e+01 5.093362037054e-01 
3.190000000000e+01 5.093362037054e-01 
3.190000000000e+01 5.093362037054e-01 
3.190000000000e+01 5.093362037054e-01 
3.190000000000e+01 5.093362037054e-01 
3.192500000000e+01 5.074689462822e-01 
3.192500000000e+01 5.074689462822e-01 
3.192500000000e+01 5.074689462822e-01 
3.192500000000e+01 5.074689462822e-01 
3.192500000000e+01 5.074689462822e-01 
3.195000000000e+01 5.056316648631e-01 
3.195000000000e+01 5.056316648631e-01 
3.195000000000e+01 5.056316648631e-01 
3.195000000000e+01 5.056316648631e-01 
3.195000000000e+01 5.056316648631e-01 
3.197500000000e+01 5.038235358020e-01 
3.197500000000e+01 5.038235358020e-01 
3.197500000000e+01 5.038235358020e-01 
3.197500000000e+01 5.038235358020e-01 
3.197500000000e+01 5.038235358020e-01 
3.200000000000e+01 4.945752182180e-01 
3.200000000000e+01 4.946029793300e-01 
3.200000000000e+01 4.946168580172e-01 
3.200000000000e+01 4.945890993925e-01 
3.200000000000e+01 4.946307354404e-01 
3.622803536543e+01 3.603105152954e-01 
3.623403479502e+01 3.602085613369e-01 
3.624003422461e+01 3.601067366636e-01 
3.624603365420e+01 3.600050409937e-01 
3.625203308379e+01 3.599034740460e-01 
4.045607073085e+01 3.149018682846e-01 
4.046806959003e+01 3.148028385847e-01 
4.048006844921e+01 3.147039597534e-01 
4.049206730839e+01 3.146052313899e-01 
4.050406616757e+01 3.145066530950e-01 
4.468410609628e+01 2.877884121842e-01 
4.470210438505e+01 2.876939477356e-01 
4.472010267382e+01 2.875996369094e-01 
4.473810096259e+01 2.875054792692e-01 
4.475609925136e+01 2.874114743805e-01 
4.891214146171e+01 2.692626410485e-01 
4.893613918007e+01 2.691726720834e-01 
4.896013689843e+01 2.690828546354e-01 
4.898413461679e+01 2.689931882586e-01 
4.900813233515e+01 2.689036725093e-01 
5.314017682714e+01 2.554773918945e-01 
5.317017397509e+01 2.553913957738e-01 
5.320017112304e+01 2.553055476749e-01 
5.323016827098e+01 2.552198471526e-01 
5.326016541893e+01 2.551342937638e-01 
 TITLE = "Profiles along polylines"
 VARIABLES = "DIST" "SATURATION1" 
 ZONE T="TIME=1.797693134862e+308"
1.814017682714e+01 1.000000000000e+00 
1.817017397509e+01 1.000000000000e+00 
1.820017112304e+01 1.000000000000e+00 
1.823016827098e+01 1.000000000000e+00 
1.826016541893e+01 1.000000000000e+00 
1.853550426623e+01 1.000000000000e+00 
1.856450150925e+01 1.000000000000e+00 
1.859349875227e+01 1.000000000000e+00 
1.862249599529e+01 1.000000000000e+00 
1.865149323830e+01 1.000000000000e+00 
1.893083170533e+01 1.000000000000e+00 
1.895882904341e+01 1.000000000000e+00 
1.898682638150e+01 1.000000000000e+00 
1.901482371959e+01 1.000000000000e+00 
1.904282105767e+01 1.000000000000e+00 
1.932615914442e+01 1.000000000000e+00 
1.935315657758e+01 1.000000000000e+00 
1.938015401073e+01 1.000000000000e+00 
1.940715144389e+01 1.000000000000e+00 
1.943414887704e+01 1.000000000000e+00 
1.972148658352e+01 1.000000000000e+00 
1.974748411174e+01 1.000000000000e+00 
1.977348163996e+01 1.000000000000e+00 
1.979947916819e+01 1.000000000000e+00 
1.982547669641e+01 1.000000000000e+00 
2.011681402261e+01 1.000000000000e+00 
2.014181164590e+01 1.000000000000e+00 
2.016680926920e+01 1.000000000000e+00 
2.019180689249e+01 1.000000000000e+00 
2.021680451578e+01 1.000000000000e+00 
2.051214146171e+01 1.000000000000e+00 
2.053613918007e+01 1.000000000000e+00 
2.056013689843e+01 1.000000000000e+00 
2.058413461679e+01 1.000000000000e+00 
2.060813233515e+01 1.000000000000e+00 
2.090746890080e+01 1.000000000000e+00 
2.093046671423e+01 1.000000000000e+00 
2.095346452766e+01 1.000000000000e+00 
2.097646234109e+01 1.000000000000e+00 
2.099946015452e+01 1.000000000000e+00 
2.130279633990e+01 1.000000000000e+00 
2.132479424840e+01 1.000000000000e+00 
2.134679215689e+01 1.000000000000e+00 
2.136879006539e+01 1.000000000000e+00 
2.139078797388e+01 1.000000000000e+00 
2.169812377899e+01 1.000000000000e+00 
2.171912178256e+01 1.000000000000e+00 
2.174011978612e+01 1.000000000000e+00 
2.176111778969e+01 1.000000000000e+00 
2.178211579325e+01 1.000000000000e+00 
2.209345121809e+01 1.000000000000e+00 
2.211344931672e+01 1.000000000000e+00 
2.213344741536e+01 1.000000000000e+00 
2.215344551399e+01 1.000000000000e+00 
2.217344361262e+01 1.000000000000e+00 
2.248877865719e+01 1.000000000000e+00 
2.250777685089e+01 1.000000000000e+00 
2.252677504459e+01 1.000000000000e+00 
2.254577323829e+01 1.000000000000e+00 
2.256477143199e+01 1.000000000000e+00 
2.288410609628e+01 1.000000000000e+00 
2.290210438505e+01 1.000000000000e+00 
2.292010267382e+01 1.000000000000e+00 
2.293810096259e+01 1.000000000000e+00 
2.295609925136e+01 1.000000000000e+00 
2.327943353538e+01 1.000000000000e+00 
2.329643191921e+01 1.000000000000e+00 
2.331343030305e+01 1.000000000000e+00 
2.333042868689e+01 1.000000000000e+00 
2.334742707073e+01 1.000000000000e+00 
2.367476097447e+01 1.000000000000e+00 
2.369075945338e+01 1.000000000000e+00 
2.370675793228e+01 1.000000000000e+00 
2.372275641119e+01 1.000000000000e+00 
2.373875489010e+01 1.000000000000e+00 
2.407008841357e+01 1.000000000000e+00 
2.408508698754e+01 1.000000000000e+00 
2.410008556152e+01 1.000000000000e+00 
2.411508413549e+01 1.000000000000e+00 
2.413008270946e+01 1.000000000000e+00 
2.446541585266e+01 1.000000000000e+00 
2.447941452170e+01 1.000000000000e+00 
2.449341319075e+01 1.000000000000e+00 
2.450741185979e+01 1.000000000000e+00 
2.452141052883e+01 1.000000000000e+00 
2.486074329176e+01 1.000000000000e+00 
2.487374205587e+01 1.000000000000e+00 
2.488674081998e+01 1.000000000000e+00 
2.489973958409e+01 1.000000000000e+00 
2.491273834820e+01 1.000000000000e+00 
2.525607073085e+01 1.000000000000e+00 
2.526806959003e+01 1.000000000000e+00 
2.528006844921e+01 1.000000000000e+00 
2.529206730839e+01 1.000000000000e+00 
2.530406616757e+01 1.000000000000e+00 
2.565139816995e+01 1.000000000000e+00 
2.566239712420e+01 1.000000000000e+00 
2.567339607844e+01 1.000000000000e+00 
2.568439503269e+01 1.000000000000e+00 
2.569539398694e+01 1.000000000000e+00 
2.604672560904e+01 1.000000000000e+00 
2.605672465836e+01 1.000000000000e+00 
2.606672370768e+01 1.000000000000e+00 
2.607672275699e+01 1.000000000000e+00 
2.608672180631e+01 1.000000000000e+00 
2.644205304814e+01 1.000000000000e+00 
2.645105219252e+01 1.000000000000e+00 
2.646005133691e+01 1.000000000000e+00 
2.646905048129e+01 1.000000000000e+00 
2.647804962568e+01 1.000000000000e+00 
2.683738048724e+01 1.000000000000e+00 
2.684537972669e+01 1.000000000000e+00 
2.685337896614e+01 1.000000000000e+00 
2.686137820559e+01 1.000000000000e+00 
2.686937744505e+01 1.000000000000e+00 
2.723270792633e+01 1.000000000000e+00 
2.723970726085e+01 1.000000000000e+00 
2.724670659537e+01 1.000000000000e+00 
2.725370592990e+01 1.000000000000e+00 
2.726070526442e+01 1.000000000000e+00 
2.762803536543e+01 1.000000000000e+00 
2.763403479502e+01 1.000000000000e+00 
2.764003422461e+01 1.000000000000e+00 
2.764603365420e+01 1.000000000000e+00 
2.765203308379e+01 1.000000000000e+00 
2.802336280452e+01 1.000000000000e+00 
2.802836232918e+01 1.000000000000e+00 
2.803336185384e+01 1.000000000000e+00 
2.803836137850e+01 1.000000000000e+00 
2.804336090315e+01 1.000000000000e+00 
2.841869024362e+01 1.000000000000e+00 
2.842268986334e+01 1.000000000000e+00 
2.842668948307e+01 1.000000000000e+00 
2.843068910280e+01 1.000000000000e+00 
2.843468872252e+01 1.000000000000e+00 
2.881401768271e+01 1.000000000000e+00 
2.881701739751e+01 1.000000000000e+00 
2.882001711230e+01 1.000000000000e+00 
2.882301682710e+01 1.000000000000e+00 
2.882601654189e+01 1.000000000000e+00 
2.920934512181e+01 1.000000000000e+00 
2.921134493167e+01 1.000000000000e+00 
2.921334474154e+01 1.000000000000e+00 
2.921534455140e+01 1.000000000000e+00 
2.921734436126e+01 1.000000000000e+00 
2.960467256090e+01 1.000000000000e+00 
2.960567246584e+01 1.000000000000e+00 
2.960667237077e+01 1.000000000000e+00 
2.960767227570e+01 1.000000000000e+00 
2.960867218063e+01 1.000000000000e+00 
3.000000000000e+01 1.000000000000e+00 
3.000000000000e+01 1.000000000000e+00 
3.000000000000e+01 1.000000000000e+00 
3.000000000000e+01 1.000000000000e+00 
3.000000000000e+01 1.000000000000e+00 
3.002500000000e+01 1.000000000000e+00 
3.002500000000e+01 1.000000000000e+00 
3.002500000000e+01 1.000000000000e+00 
3.002500000000e+01 1.000000000000e+00 
3.002500000000e+01 1.000000000000e+00 
3.005000000000e+01 1.000000000000e+00 
3.005000000000e+01 1.000000000000e+00 
3.005000000000e+01 1.000000000000e+00 
3.005000000000e+01 1.000000000000e+00 
3.005000000000e+01 1.000000000000e+00 
3.007500000000e+01 1.000000000000e+00 
3.007500000000e+01 1.000000000000e+00 
3.007500000000e+01 1.000000000000e+00 
3.007500000000e+01 1.000000000000e+00 
3.007500000000e+01 1.000000000000e+00 
3.010000000000e+01 1.000000000000e+00 
3.010000000000e+01 1.000000000000e+00 
3.010000000000e+01 1.000000000000e+00 
3.010000000000e+01 1.000000000000e+00 
3.010000000000e+01 1.000000000000e+00 
3.012500000000e+01 1.000000000000e+00 
3.012500000000e+01 1.000000000000e+00 
3.012500000000e+01 1.000000000000e+00 
3.012500000000e+01 1.000000000000e+00 
3.012500000000e+01 1.000000000000e+00 
3.015000000000e+01 1.000000000000e+00 
3.015000000000e+01 1.000000000000e+00 
3.015000000000e+01 1.000000000000e+00 