 TITLE = "Profiles along polylines"
 VARIABLES = "DIST" "SATURATION1" 
 ZONE T="TIME=0.000000000000e+00"
7.902704039437e-01 1.000000000000e+00 
7.952721153611e-01 1.000000000000e+00 
8.002738267785e-01 1.000000000000e+00 
8.052755381959e-01 1.000000000000e+00 
8.102772496133e-01 1.000000000000e+00 
1.763928057145e+00 1.000000000000e+00 
1.768763044849e+00 1.000000000000e+00 
1.773598032552e+00 1.000000000000e+00 
1.778433020256e+00 1.000000000000e+00 
1.783268007959e+00 1.000000000000e+00 
2.737585710347e+00 1.000000000000e+00 
2.742253974336e+00 1.000000000000e+00 
2.746922238326e+00 1.000000000000e+00 
2.751590502315e+00 1.000000000000e+00 
2.756258766305e+00 1.000000000000e+00 
3.711243363549e+00 1.000000000000e+00 
3.715744903825e+00 1.000000000000e+00 
3.720246444100e+00 1.000000000000e+00 
3.724747984376e+00 1.000000000000e+00 
3.729249524652e+00 1.000000000000e+00 
4.684901016751e+00 1.000000000000e+00 
4.689235833313e+00 1.000000000000e+00 
4.693570649874e+00 1.000000000000e+00 
4.697905466436e+00 1.000000000000e+00 
4.702240282998e+00 1.000000000000e+00 
5.658558669952e+00 1.000000000000e+00 
5.662726762800e+00 1.000000000000e+00 
5.666894855648e+00 1.000000000000e+00 
5.671062948496e+00 1.000000000000e+00 
5.675231041343e+00 1.000000000000e+00 
6.632216323153e+00 1.000000000000e+00 
6.636217692287e+00 1.000000000000e+00 
6.640219061421e+00 1.000000000000e+00 
6.644220430555e+00 1.000000000000e+00 
6.648221799689e+00 1.000000000000e+00 
7.605873976354e+00 1.000000000000e+00 
7.609708621774e+00 1.000000000000e+00 
7.613543267194e+00 1.000000000000e+00 
7.617377912614e+00 1.000000000000e+00 
7.621212558034e+00 1.000000000000e+00 
8.579531629555e+00 1.000000000000e+00 
8.583199551261e+00 1.000000000000e+00 
8.586867472967e+00 1.000000000000e+00 
8.590535394673e+00 1.000000000000e+00 
8.594203316379e+00 1.000000000000e+00 
9.553189282754e+00 1.000000000000e+00 
9.556690480746e+00 1.000000000000e+00 
9.560191678738e+00 1.000000000000e+00 
9.563692876730e+00 1.000000000000e+00 
9.567194074722e+00 1.000000000000e+00 
1.052684693595e+01 1.000000000000e+00 
1.053018141023e+01 1.000000000000e+00 
1.053351588451e+01 1.000000000000e+00 
1.053685035879e+01 1.000000000000e+00 
1.054018483307e+01 1.000000000000e+00 
1.150050458915e+01 1.000000000000e+00 
1.150367233971e+01 1.000000000000e+00 
1.150684009028e+01 1.000000000000e+00 
1.151000784084e+01 1.000000000000e+00 
1.151317559141e+01 1.000000000000e+00 
1.247416224235e+01 1.000000000000e+00 
1.247716326920e+01 1.000000000000e+00 
1.248016429605e+01 1.000000000000e+00 
1.248316532290e+01 1.000000000000e+00 
1.248616634975e+01 1.000000000000e+00 
1.344781989555e+01 1.000000000000e+00 
1.345065419868e+01 1.000000000000e+00 
1.345348850182e+01 1.000000000000e+00 
1.345632280496e+01 1.000000000000e+00 
1.345915710809e+01 1.000000000000e+00 
1.442147754875e+01 1.000000000000e+00 
1.442414512817e+01 1.000000000000e+00 
1.442681270759e+01 1.000000000000e+00 
1.442948028701e+01 1.000000000000e+00 
1.443214786644e+01 1.000000000000e+00 
1.539513520194e+01 1.000000000000e+00 
1.539763605765e+01 1.000000000000e+00 
1.540013691336e+01 1.000000000000e+00 
1.540263776907e+01 1.000000000000e+00 
1.540513862478e+01 1.000000000000e+00 
1.636879285515e+01 1.000000000000e+00 
1.637112698714e+01 1.000000000000e+00 
1.637346111914e+01 1.000000000000e+00 
1.637579525113e+01 1.000000000000e+00 
1.637812938313e+01 1.000000000000e+00 
1.734245050835e+01 1.000000000000e+00 
1.734461791663e+01 1.000000000000e+00 
1.734678532491e+01 1.000000000000e+00 
1.734895273319e+01 1.000000000000e+00 
1.735112014147e+01 1.000000000000e+00 
1.831610816155e+01 1.000000000000e+00 
1.831810884612e+01 1.000000000000e+00 
1.832010953069e+01 1.000000000000e+00 
1.832211021526e+01 1.000000000000e+00 
1.832411089982e+01 1.000000000000e+00 
1.928976581476e+01 1.000000000000e+00 
1.929159977561e+01 1.000000000000e+00 
1.929343373646e+01 1.000000000000e+00 
1.929526769732e+01 1.000000000000e+00 
1.929710165817e+01 1.000000000000e+00 
2.026342346796e+01 1.000000000000e+00 
2.026509070510e+01 1.000000000000e+00 
2.026675794224e+01 1.000000000000e+00 
2.026842517938e+01 1.000000000000e+00 
2.027009241652e+01 1.000000000000e+00 
2.123708112117e+01 1.000000000000e+00 
2.123858163459e+01 1.000000000000e+00 
2.124008214802e+01 1.000000000000e+00 
2.124158266144e+01 1.000000000000e+00 
2.124308317487e+01 1.000000000000e+00 
2.221073877437e+01 1.000000000000e+00 
2.221207256408e+01 1.000000000000e+00 
2.221340635379e+01 1.000000000000e+00 
2.221474014350e+01 1.000000000000e+00 
2.221607393322e+01 1.000000000000e+00 
2.318439642757e+01 1.000000000000e+00 
2.318556349357e+01 1.000000000000e+00 
2.318673055957e+01 1.000000000000e+00 
2.318789762557e+01 1.000000000000e+00 
2.318906469156e+01 1.000000000000e+00 
2.415805408078e+01 1.000000000000e+00 
2.415905442306e+01 1.000000000000e+00 
2.416005476534e+01 1.000000000000e+00 
2.416105510763e+01 1.000000000000e+00 
2.416205544991e+01 1.000000000000e+00 
2.513171173398e+01 1.000000000000e+00 
2.513254535255e+01 1.000000000000e+00 
2.513337897112e+01 1.000000000000e+00 
2.513421258969e+01 1.000000000000e+00 
2.513504620826e+01 1.000000000000e+00 
2.610536938719e+01 1.000000000000e+00 
2.610603628204e+01 1.000000000000e+00 
2.610670317690e+01 1.000000000000e+00 
2.610737007175e+01 1.000000000000e+00 
2.610803696661e+01 1.000000000000e+00 
2.707902704039e+01 1.000000000000e+00 
2.707952721153e+01 1.000000000000e+00 
2.708002738267e+01 1.000000000000e+00 
2.708052755381e+01 1.000000000000e+00 
2.708102772496e+01 1.000000000000e+00 
2.805268469359e+01 1.000000000000e+00 
2.805301814102e+01 1.000000000000e+00 
2.805335158845e+01 1.000000000000e+00 
2.805368503588e+01 1.000000000000e+00 
2.805401848330e+01 1.000000000000e+00 
2.902634234680e+01 1.000000000000e+00 
2.902650907051e+01 1.000000000000e+00 
2.902667579422e+01 1.000000000000e+00 
2.902684251794e+01 1.000000000000e+00 
2.902700924165e+01 1.000000000000e+00 
3.000000000000e+01 1.000000000000e+00 
3.000000000000e+01 1.000000000000e+00 
3.000000000000e+01 1.000000000000e+00 
3.000000000000e+01 1.000000000000e+00 
3.000000000000e+01 1.000000000000e+00 
3.002500000000e+01 9.876207709446e-01 
3.002500000000e+01 9.876207709446e-01 
3.002500000000e+01 9.876207709446e-01 
3.002500000000e+01 9.876207709446e-01 
3.002500000000e+01 9.876207709446e-01 
3.005000000000e+01 9.697756439369e-01 
3.005000000000e+01 9.697756439369e-01 
3.005000000000e+01 9.697756439369e-01 
3.005000000000e+01 9.697756439369e-01 
3.005000000000e+01 9.697756439369e-01 
3.007500000000e+01 9.507134089444e-01 
3.007500000000e+01 9.507134089444e-01 
3.007500000000e+01 9.507134089444e-01 
3.007500000000e+01 9.507134089444e-01 
3.007500000000e+01 9.507134089444e-01 
3.010000000000e+01 9.315621650298e-01 
3.010000000000e+01 9.315621650298e-01 
3.010000000000e+01 9.315621650298e-01 
3.010000000000e+01 9.315621650298e-01 
3.010000000000e+01 9.315621650298e-01 
3.012500000000e+01 9.128758324042e-01 
3.012500000000e+01 9.128758324042e-01 
3.012500000000e+01 9.128758324042e-01 
3.012500000000e+01 9.128758324042e-01 
3.012500000000e+01 9.128758324042e-01 
3.015000000000e+01 8.949248043380e-01 
3.015000000000e+01 8.949248043380e-01 
3.015000000000e+01 8.949248043380e-01 
3.015000000000e+01 8.949248043380e-01 
3.015000000000e+01 8.949248043380e-01 
3.017500000000e+01 8.778290027968e-01 
3.017500000000e+01 8.778290027968e-01 
3.017500000000e+01 8.778290027968e-01 
3.017500000000e+01 8.778290027968e-01 
3.017500000000e+01 8.778290027968e-01 
3.020000000000e+01 8.616255702900e-01 
3.020000000000e+01 8.616255702900e-01 
3.020000000000e+01 8.616255702900e-01 
3.020000000000e+01 8.616255702900e-01 
3.020000000000e+01 8.616255702900e-01 
3.022500000000e+01 8.463059583920e-01 
3.022500000000e+01 8.463059583920e-01 
3.022500000000e+01 8.463059583920e-01 
3.022500000000e+01 8.463059583920e-01 
3.022500000000e+01 8.463059583920e-01 
3.025000000000e+01 8.318370344398e-01 
3.025000000000e+01 8.318370344398e-01 
3.025000000000e+01 8.318370344398e-01 
3.025000000000e+01 8.318370344398e-01 
3.025000000000e+01 8.318370344398e-01 
3.027500000000e+01 8.181733156316e-01 
3.027500000000e+01 8.181733156316e-01 
3.027500000000e+01 8.181733156316e-01 
3.027500000000e+01 8.181733156316e-01 
3.027500000000e+01 8.181733156316e-01 
3.030000000000e+01 8.052640970350e-01 
3.030000000000e+01 8.052640970350e-01 
3.030000000000e+01 8.052640970350e-01 
3.030000000000e+01 8.052640970350e-01 
3.030000000000e+01 8.052640970350e-01 
3.032500000000e+01 7.930575753856e-01 
3.032500000000e+01 7.930575753856e-01 
3.032500000000e+01 7.930575753856e-01 
3.032500000000e+01 7.930575753856e-01 
3.032500000000e+01 7.930575753856e-01 
3.035000000000e+01 7.815031815402e-01 
3.035000000000e+01 7.815031815402e-01 
3.035000000000e+01 7.815031815402e-01 
3.035000000000e+01 7.815031815402e-01 
3.035000000000e+01 7.815031815402e-01 
3.037500000000e+01 7.705528376764e-01 
3.037500000000e+01 7.705528376764e-01 
3.037500000000e+01 7.705528376764e-01 
3.037500000000e+01 7.705528376764e-01 
3.037500000000e+01 7.705528376764e-01 
3.040000000000e+01 7.601615689674e-01 
3.040000000000e+01 7.601615689674e-01 
3.040000000000e+01 7.601615689674e-01 
3.040000000000e+01 7.601615689674e-01 
3.040000000000e+01 7.601615689674e-01 
3.042500000000e+01 7.502877306002e-01 
3.042500000000e+01 7.502877306002e-01 
3.042500000000e+01 7.502877306002e-01 
3.042500000000e+01 7.502877306002e-01 
3.042500000000e+01 7.502877306002e-01 
3.045000000000e+01 7.408930096824e-01 
3.045000000000e+01 7.408930096824e-01 
3.045000000000e+01 7.408930096824e-01 
3.045000000000e+01 7.408930096824e-01 
3.045000000000e+01 7.408930096824e-01 
3.047500000000e+01 7.319422999608e-01 
3.047500000000e+01 7.319422999608e-01 
3.047500000000e+01 7.319422999608e-01 
3.047500000000e+01 7.319422999608e-01 
3.047500000000e+01 7.319422999608e-01 
3.050000000000e+01 7.234035093991e-01 
3.050000000000e+01 7.234035093991e-01 
3.050000000000e+01 7.234035093991e-01 
3.050000000000e+01 7.234035093991e-01 
3.050000000000e+01 7.234035093991e-01 
3.052500000000e+01 7.152473371957e-01 
3.052500000000e+01 7.152473371957e-01 
3.052500000000e+01 7.152473371957e-01 
3.052500000000e+01 7.152473371957e-01 
3.052500000000e+01 7.152473371957e-01 
3.055000000000e+01 7.074470422112e-01 
3.055000000000e+01 7.074470422112e-01 
3.055000000000e+01 7.074470422112e-01 
3.055000000000e+01 7.074470422112e-01 
3.055000000000e+01 7.074470422112e-01 
3.057500000000e+01 6.999782156504e-01 
3.057500000000e+01 6.999782156504e-01 
3.057500000000e+01 6.999782156504e-01 
3.057500000000e+01 6.999782156504e-01 
3.057500000000e+01 6.999782156504e-01 
3.060000000000e+01 6.928185651596e-01 
3.060000000000e+01 6.928185651596e-01 
3.060000000000e+01 6.928185651596e-01 
3.060000000000e+01 6.928185651596e-01 
3.060000000000e+01 6.928185651596e-01 
3.062500000000e+01 6.859477139679e-01 
3.062500000000e+01 6.859477139679e-01 
3.062500000000e+01 6.859477139679e-01 
3.062500000000e+01 6.859477139679e-01 
3.062500000000e+01 6.859477139679e-01 
3.065000000000e+01 6.793470165436e-01 
3.065000000000e+01 6.793470165436e-01 
3.065000000000e+01 6.793470165436e-01 
3.065000000000e+01 6.793470165436e-01 
3.065000000000e+01 6.793470165436e-01 
3.067500000000e+01 6.729993909360e-01 
3.067500000000e+01 6.729993909360e-01 
3.067500000000e+01 6.729993909360e-01 
3.067500000000e+01 6.729993909360e-01 
3.067500000000e+01 6.729993909360e-01 
3.070000000000e+01 6.668891672206e-01 
3.070000000000e+01 6.668891672206e-01 
3.070000000000e+01 6.668891672206e-01 
3.070000000000e+01 6.668891672206e-01 
3.070000000000e+01 6.668891672206e-01 
3.072500000000e+01 6.610019510587e-01 
3.072500000000e+01 6.610019510587e-01 
3.072500000000e+01 6.610019510587e-01 
3.072500000000e+01 6.610019510587e-01 
3.072500000000e+01 6.610019510587e-01 
3.075000000000e+01 6.553245011865e-01 
3.075000000000e+01 6.553245011865e-01 
3.075000000000e+01 6.553245011865e-01 
3.075000000000e+01 6.553245011865e-01 
3.075000000000e+01 6.553245011865e-01 
3.077500000000e+01 6.498446195878e-01 
3.077500000000e+01 6.498446195878e-01 
3.077500000000e+01 6.498446195878e-01 
3.077500000000e+01 6.498446195878e-01 
3.077500000000e+01 6.498446195878e-01 
3.080000000000e+01 6.445510531188e-01 
3.080000000000e+01 6.445510531188e-01 
3.080000000000e+01 6.445510531188e-01 
3.080000000000e+01 6.445510531188e-01 
3.080000000000e+01 6.445510531188e-01 
3.082500000000e+01 6.394334054150e-01 
3.082500000000e+01 6.394334054150e-01 
3.082500000000e+01 6.394334054150e-01 
3.082500000000e+01 6.394334054150e-01 
3.082500000000e+01 6.394334054150e-01 
3.085000000000e+01 6.344820579917e-01 
3.085000000000e+01 6.344820579917e-01 
3.085000000000e+01 6.344820579917e-01 
3.085000000000e+01 6.344820579917e-01 
3.085000000000e+01 6.344820579917e-01 
3.087500000000e+01 6.296880995462e-01 
3.087500000000e+01 6.296880995462e-01 
3.087500000000e+01 6.296880995462e-01 
3.087500000000e+01 6.296880995462e-01 
3.087500000000e+01 6.296880995462e-01 
3.090000000000e+01 6.250432625624e-01 
3.090000000000e+01 6.250432625624e-01 
3.090000000000e+01 6.250432625624e-01 
3.090000000000e+01 6.250432625624e-01 
3.090000000000e+01 6.250432625624e-01 
3.092500000000e+01 6.205398664126e-01 
3.092500000000e+01 6.205398664126e-01 
3.092500000000e+01 6.205398664126e-01 
3.092500000000e+01 6.205398664126e-01 
3.092500000000e+01 6.205398664126e-01 
3.095000000000e+01 6.161707662369e-01 
3.095000000000e+01 6.161707662369e-01 
3.095000000000e+01 6.161707662369e-01 
3.095000000000e+01 6.161707662369e-01 
3.095000000000e+01 6.161707662369e-01 
3.097500000000e+01 6.119293069613e-01 
3.097500000000e+01 6.119293069613e-01 
3.097500000000e+01 6.119293069613e-01 
3.097500000000e+01 6.119293069613e-01 
3.097500000000e+01 6.119293069613e-01 
3.100000000000e+01 6.078092818871e-01 
3.100000000000e+01 6.078092818871e-01 
3.100000000000e+01 6.078092818871e-01 
3.100000000000e+01 6.078092818871e-01 
3.100000000000e+01 6.078092818871e-01 
3.102500000000e+01 6.038048953494e-01 
3.102500000000e+01 6.038048953494e-01 
3.102500000000e+01 6.038048953494e-01 
3.102500000000e+01 6.038048953494e-01 
3.102500000000e+01 6.038048953494e-01 
3.105000000000e+01 5.999107290013e-01 
3.105000000000e+01 5.999107290013e-01 
3.105000000000e+01 5.999107290013e-01 
3.105000000000e+01 5.999107290013e-01 
3.105000000000e+01 5.999107290013e-01 
3.107500000000e+01 5.961217113309e-01 
3.107500000000e+01 5.961217113309e-01 
3.107500000000e+01 5.961217113309e-01 
3.107500000000e+01 5.961217113309e-01 
3.107500000000e+01 5.961217113309e-01 
3.110000000000e+01 5.924330900627e-01 
3.110000000000e+01 5.924330900627e-01 
3.110000000000e+01 5.924330900627e-01 
3.110000000000e+01 5.924330900627e-01 
3.110000000000e+01 5.924330900627e-01 
3.112500000000e+01 5.888404071392e-01 
3.112500000000e+01 5.888404071392e-01 
3.112500000000e+01 5.888404071392e-01 
3.112500000000e+01 5.888404071392e-01 
3.112500000000e+01 5.888404071392e-01 
3.115000000000e+01 5.853394760078e-01 
3.115000000000e+01 5.853394760078e-01 
3.115000000000e+01 5.853394760078e-01 
3.115000000000e+01 5.853394760078e-01 
3.115000000000e+01 5.853394760078e-01 
3.117500000000e+01 5.819263609758e-01 
3.117500000000e+01 5.819263609758e-01 
3.117500000000e+01 5.819263609758e-01 
3.117500000000e+01 5.819263609758e-01 
3.117500000000e+01 5.819263609758e-01 
3.120000000000e+01 5.785973584173e-01 
3.120000000000e+01 5.785973584173e-01 
3.120000000000e+01 5.785973584173e-01 
3.120000000000e+01 5.785973584173e-01 
3.120000000000e+01 5.785973584173e-01 
3.122500000000e+01 5.753489796460e-01 
3.122500000000e+01 5.753489796460e-01 
3.122500000000e+01 5.753489796460e-01 
3.122500000000e+01 5.753489796460e-01 
3.122500000000e+01 5.753489796460e-01 
3.125000000000e+01 5.721779352840e-01 
3.125000000000e+01 5.721779352840e-01 
3.125000000000e+01 5.721779352840e-01 
3.125000000000e+01 5.721779352840e-01 
3.125000000000e+01 5.721779352840e-01 
3.127500000000e+01 5.690811209785e-01 
3.127500000000e+01 5.690811209785e-01 
3.127500000000e+01 5.690811209785e-01 
3.127500000000e+01 5.690811209785e-01 
3.127500000000e+01 5.690811209785e-01 
3.130000000000e+01 5.660556043336e-01 
3.130000000000e+01 5.660556043336e-01 
3.130000000000e+01 5.660556043336e-01 
3.130000000000e+01 5.660556043336e-01 
3.130000000000e+01 5.660556043336e-01 
3.132500000000e+01 5.630986129391e-01 
3.132500000000e+01 5.630986129391e-01 
3.132500000000e+01 5.630986129391e-01 
3.132500000000e+01 5.630986129391e-01 
3.132500000000e+01 5.630986129391e-01 
3.135000000000e+01 5.602075233904e-01 
3.135000000000e+01 5.602075233904e-01 
3.135000000000e+01 5.602075233904e-01 
3.135000000000e+01 5.602075233904e-01 
3.135000000000e+01 5.602075233904e-01 
3.137500000000e+01 5.573798512060e-01 
3.137500000000e+01 5.573798512060e-01 
3.137500000000e+01 5.573798512060e-01 
3.137500000000e+01 5.573798512060e-01 
3.137500000000e+01 5.573798512060e-01 
3.140000000000e+01 5.546132415581e-01 
3.140000000000e+01 5.546132415581e-01 
3.140000000000e+01 5.546132415581e-01 
3.140000000000e+01 5.546132415581e-01 
3.140000000000e+01 5.546132415581e-01 
3.142500000000e+01 5.519054607414e-01 
3.142500000000e+01 5.519054607414e-01 
3.142500000000e+01 5.519054607414e-01 
3.142500000000e+01 5.519054607414e-01 
3.142500000000e+01 5.519054607414e-01 
3.145000000000e+01 5.492543883110e-01 
3.145000000000e+01 5.492543883110e-01 
3.145000000000e+01 5.492543883110e-01 
3.145000000000e+01 5.492543883110e-01 
3.145000000000e+01 5.492543883110e-01 
3.147500000000e+01 5.466580098318e-01 
3.147500000000e+01 5.466580098318e-01 
3.147500000000e+01 5.466580098318e-01 
3.147500000000e+01 5.466580098318e-01 
3.147500000000e+01 5.466580098318e-01 
3.150000000000e+01 5.441144101810e-01 
3.150000000000e+01 5.441144101810e-01 
3.150000000000e+01 5.441144101810e-01 
3.150000000000e+01 5.441144101810e-01 
3.150000000000e+01 5.441144101810e-01 
3.152500000000e+01 5.416217673588e-01 
3.152500000000e+01 5.416217673588e-01 
3.152500000000e+01 5.416217673588e-01 
3.152500000000e+01 5.416217673588e-01 
3.152500000000e+01 5.416217673588e-01 
3.155000000000e+01 5.391783467591e-01 
3.155000000000e+01 5.391783467591e-01 
3.155000000000e+01 5.391783467591e-01 
3.155000000000e+01 5.391783467591e-01 
3.155000000000e+01 5.391783467591e-01 
3.157500000000e+01 5.367824958643e-01 
3.157500000000e+01 5.367824958643e-01 
3.157500000000e+01 5.367824958643e-01 
3.157500000000e+01 5.367824958643e-01 
3.157500000000e+01 5.367824958643e-01 
3.160000000000e+01 5.344326393247e-01 
3.160000000000e+01 5.344326393247e-01 
3.160000000000e+01 5.344326393247e-01 
3.160000000000e+01 5.344326393247e-01 
3.160000000000e+01 5.344326393247e-01 
3.162500000000e+01 5.321272743928e-01 
3.162500000000e+01 5.321272743928e-01 
3.162500000000e+01 5.321272743928e-01 
3.162500000000e+01 5.321272743928e-01 
3.162500000000e+01 5.321272743928e-01 
3.165000000000e+01 5.298649666811e-01 
3.165000000000e+01 5.298649666811e-01 
3.165000000000e+01 5.298649666811e-01 
3.165000000000e+01 5.298649666811e-01 
3.165000000000e+01 5.298649666811e-01 
3.167500000000e+01 5.276443462180e-01 
3.167500000000e+01 5.276443462180e-01 
3.167500000000e+01 5.276443462180e-01 
3.167500000000e+01 5.276443462180e-01 
3.167500000000e+01 5.276443462180e-01 
3.170000000000e+01 5.254641037767e-01 
3.170000000000e+01 5.254641037767e-01 
3.170000000000e+01 5.254641037767e-01 
3.170000000000e+01 5.254641037767e-01 
3.170000000000e+01 5.254641037767e-01 
3.172500000000e+01 5.233229874560e-01 
3.172500000000e+01 5.233229874560e-01 
3.172500000000e+01 5.233229874560e-01 
3.172500000000e+01 5.233229874560e-01 
3.172500000000e+01 5.233229874560e-01 
3.175000000000e+01 5.212197994921e-01 
3.175000000000e+01 5.212197994921e-01 
3.175000000000e+01 5.212197994921e-01 
3.175000000000e+01 5.212197994921e-01 
3.175000000000e+01 5.212197994921e-01 
3.177500000000e+01 5.191533932842e-01 
3.177500000000e+01 5.191533932842e-01 
3.177500000000e+01 5.191533932842e-01 
3.177500000000e+01 5.191533932842e-01 
3.177500000000e+01 5.191533932842e-01 
3.180000000000e+01 5.171226706164e-01 
3.180000000000e+01 5.171226706164e-01 
3.180000000000e+01 5.171226706164e-01 
3.180000000000e+01 5.171226706164e-01 
3.180000000000e+01 5.171226706164e-01 
3.182500000000e+01 5.151265790614e-01 
3.182500000000e+01 5.151265790614e-01 
3.182500000000e+01 5.151265790614e-01 
3.182500000000e+01 5.151265790614e-01 
3.182500000000e+01 5.151265790614e-01 
3.185000000000e+01 5.131641095520e-01 
3.185000000000e+01 5.131641095520e-01 
3.185000000000e+01 5.131641095520e-01 
3.185000000000e+01 5.131641095520e-01 
3.185000000000e+01 5.131641095520e-01 
3.187500000000e+01 5.112342941078e-01 
3.187500000000e+01 5.112342941078e-01 
3.187500000000e+01 5.112342941078e-01 
3.187500000000e+01 5.112342941078e-01 
3.187500000000e+01 5.112342941078e-01 
3.190000000000e+01 5.093362037054e-01 
3.190000000000e+01 5.093362037054e-01 
3.190000000000e+01 5.093362037054e-01 
3.190000000000e+01 5.093362037054e-01 
3.190000000000e+01 5.093362037054e-01 
3.192500000000e+01 5.074689462822e-01 
3.192500000000e+01 5.074689462822e-01 
3.192500000000e+01 5.074689462822e-01 
3.192500000000e+01 5.074689462822e-01 
3.192500000000e+01 5.074689462822e-01 
3.195000000000e+01 5.056316648631e-01 
3.195000000000e+01 5.056316648631e-01 
3.195000000000e+01 5.056316648631e-01 
3.195000000000e+01 5.056316648631e-01 
3.195000000000e+01 5.056316648631e-01 
3.197500000000e+01 5.038235358020e-01 
3.197500000000e+01 5.038235358020e-01 
3.197500000000e+01 5.038235358020e-01 
3.197500000000e+01 5.038235358020e-01 
3.197500000000e+01 5.038235358020e-01 
3.200000000000e+01 5.015431398632e-01 
3.200000000000e+01 5.015454790466e-01 
3.200000000000e+01 5.015466470722e-01 
3.200000000000e+01 5.015443099767e-01 
3.200000000000e+01 5.015478140524e-01 
3.275805408079e+01 4.578396977908e-01 
3.275905442307e+01 4.577914066456e-01 
3.276005476536e+01 4.577431369806e-01 
3.276105510764e+01 4.576948887798e-01 
3.276205544992e+01 4.576466620272e-01 
3.351610816158e+01 4.276767171550e-01 
3.351810884614e+01 4.276073575969e-01 
3.352010953071e+01 4.275380489585e-01 
3.352211021528e+01 4.274687911752e-01 
3.352411089985e+01 4.273995841828e-01 
3.427416224237e+01 4.048542893544e-01 
3.427716326922e+01 4.047738970636e-01 
3.428016429607e+01 4.046935782638e-01 
3.428316532292e+01 4.046133328380e-01 
3.428616634977e+01 4.045331606699e-01 
3.503221632315e+01 3.867407426827e-01 
3.503621769229e+01 3.866542688599e-01 
3.504021906142e+01 3.865678849550e-01 
3.504422043056e+01 3.864815908054e-01 
3.504822179969e+01 3.863953862485e-01 
3.579027040394e+01 3.718569006901e-01 
3.579527211536e+01 3.717670168272e-01 
3.580027382678e+01 3.716772347958e-01 
3.580527553820e+01 3.715875543947e-01 
3.581027724961e+01 3.714979754234e-01 
 TITLE = "Profiles along polylines"
 VARIABLES = "DIST" "SATURATION1" 
 ZONE T="TIME=1.797693134862e+308"
7.902704039437e-01 1.000000000000e+00 
7.952721153611e-01 1.000000000000e+00 
8.002738267785e-01 1.000000000000e+00 
8.052755381959e-01 1.000000000000e+00 
8.102772496133e-01 1.000000000000e+00 
1.763928057145e+00 1.000000000000e+00 
1.768763044849e+00 1.000000000000e+00 
1.773598032552e+00 1.000000000000e+00 
1.778433020256e+00 1.000000000000e+00 
1.783268007959e+00 1.000000000000e+00 
2.737585710347e+00 1.000000000000e+00 
2.742253974336e+00 1.000000000000e+00 
2.746922238326e+00 1.000000000000e+00 
2.751590502315e+00 1.000000000000e+00 
2.756258766305e+00 1.000000000000e+00 
3.711243363549e+00 1.000000000000e+00 
3.715744903825e+00 1.000000000000e+00 
3.720246444100e+00 1.000000000000e+00 
3.724747984376e+00 1.000000000000e+00 
3.729249524652e+00 1.000000000000e+00 
4.684901016751e+00 1.000000000000e+00 
4.689235833313e+00 1.000000000000e+00 
4.693570649874e+00 1.000000000000e+00 
4.697905466436e+00 1.000000000000e+00 
4.702240282998e+00 1.000000000000e+00 
5.658558669952e+00 1.000000000000e+00 
5.662726762800e+00 1.000000000000e+00 
5.666894855648e+00 1.000000000000e+00 
5.671062948496e+00 1.000000000000e+00 
5.675231041343e+00 1.000000000000e+00 
6.632216323153e+00 1.000000000000e+00 
6.636217692287e+00 1.000000000000e+00 
6.640219061421e+00 1.000000000000e+00 
6.644220430555e+00 1.000000000000e+00 
6.648221799689e+00 1.000000000000e+00 
7.605873976354e+00 1.000000000000e+00 
7.609708621774e+00 1.000000000000e+00 
7.613543267194e+00 1.000000000000e+00 
7.617377912614e+00 1.000000000000e+00 
7.621212558034e+00 1.000000000000e+00 
8.579531629555e+00 1.000000000000e+00 
8.583199551261e+00 1.000000000000e+00 
8.586867472967e+00 1.000000000000e+00 
8.590535394673e+00 1.000000000000e+00 
8.594203316379e+00 1.000000000000e+00 
9.553189282754e+00 1.000000000000e+00 
9.556690480746e+00 1.000000000000e+00 
9.560191678738e+00 1.000000000000e+00 
9.563692876730e+00 1.000000000000e+00 
9.567194074722e+00 1.000000000000e+00 
1.052684693595e+01 1.000000000000e+00 
1.053018141023e+01 1.000000000000e+00 
1.053351588451e+01 1.000000000000e+00 
1.053685035879e+01 1.000000000000e+00 
1.054018483307e+01 1.000000000000e+00 
1.150050458915e+01 1.000000000000e+00 
1.150367233971e+01 1.000000000000e+00 
1.150684009028e+01 1.000000000000e+00 
1.151000784084e+01 1.000000000000e+00 
1.151317559141e+01 1.000000000000e+00 
1.247416224235e+01 1.000000000000e+00 
1.247716326920e+01 1.000000000000e+00 
1.248016429605e+01 1.000000000000e+00 
1.248316532290e+01 1.000000000000e+00 
1.248616634975e+01 1.000000000000e+00 
1.344781989555e+01 1.000000000000e+00 
1.345065419868e+01 1.000000000000e+00 
1.345348850182e+01 1.000000000000e+00 
1.345632280496e+01 1.000000000000e+00 
1.345915710809e+01 1.000000000000e+00 
1.442147754875e+01 1.000000000000e+00 
1.442414512817e+01 1.000000000000e+00 
1.442681270759e+01 1.000000000000e+00 
1.442948028701e+01 1.000000000000e+00 
1.443214786644e+01 1.000000000000e+00 
1.539513520194e+01 1.000000000000e+00 
1.539763605765e+01 1.000000000000e+00 
1.540013691336e+01 1.000000000000e+00 
1.540263776907e+01 1.000000000000e+00 
1.540513862478e+01 1.000000000000e+00 
1.636879285515e+01 1.000000000000e+00 
1.637112698714e+01 1.000000000000e+00 
1.637346111914e+01 1.000000000000e+00 
1.637579525113e+01 1.000000000000e+00 
1.637812938313e+01 1.000000000000e+00 
1.734245050835e+01 1.000000000000e+00 
1.734461791663e+01 1.000000000000e+00 
1.734678532491e+01 1.000000000000e+00 
1.734895273319e+01 1.000000000000e+00 
1.735112014147e+01 1.000000000000e+00 
1.831610816155e+01 1.000000000000e+00 
1.831810884612e+01 1.000000000000e+00 
1.832010953069e+01 1.000000000000e+00 
1.832211021526e+01 1.000000000000e+00 
1.832411089982e+01 1.000000000000e+00 
1.928976581476e+01 1.000000000000e+00 
1.929159977561e+01 1.000000000000e+00 
1.929343373646e+01 1.000000000000e+00 
1.929526769732e+01 1.000000000000e+00 
1.929710165817e+01 1.000000000000e+00 
2.026342346796e+01 1.000000000000e+00 
2.026509070510e+01 1.000000000000e+00 
2.026675794224e+01 1.000000000000e+00 
2.026842517938e+01 1.000000000000e+00 
2.027009241652e+01 1.000000000000e+00 
2.123708112117e+01 1.000000000000e+00 
2.123858163459e+01 1.000000000000e+00 
2.124008214802e+01 1.000000000000e+00 
2.124158266144e+01 1.000000000000e+00 
2.124308317487e+01 1.000000000000e+00 
2.221073877437e+01 1.000000000000e+00 
2.221207256408e+01 1.000000000000e+00 
2.221340635379e+01 1.000000000000e+00 
2.221474014350e+01 1.000000000000e+00 
2.221607393322e+01 1.000000000000e+00 
2.318439642757e+01 1.000000000000e+00 
2.318556349357e+01 1.000000000000e+00 
2.318673055957e+01 1.000000000000e+00 
2.318789762557e+01 1.000000000000e+00 
2.318906469156e+01 1.000000000000e+00 
2.415805408078e+01 1.000000000000e+00 
2.415905442306e+01 1.000000000000e+00 
2.416005476534e+01 1.000000000000e+00 
2.416105510763e+01 1.000000000000e+00 
2.416205544991e+01 1.000000000000e+00 
2.513171173398e+01 1.000000000000e+00 
2.513254535255e+01 1.000000000000e+00 
2.513337897112e+01 1.000000000000e+00 
2.513421258969e+01 1.000000000000e+00 
2.513504620826e+01 1.000000000000e+00 
2.610536938719e+01 1.000000000000e+00 
2.610603628204e+01 1.000000000000e+00 
2.610670317690e+01 1.000000000000e+00 
2.610737007175e+01 1.000000000000e+00 
2.610803696661e+01 1.000000000000e+00 
2.707902704039e+01 1.000000000000e+00 
2.707952721153e+01 1.000000000000e+00 
2.708002738267e+01 1.000000000000e+00 
2.708052755381e+01 1.000000000000e+00 
2.708102772496e+01 1.000000000000e+00 
2.805268469359e+01 1.000000000000e+00 
2.805301814102e+01 1.000000000000e+00 
2.805335158845e+01 1.000000000000e+00 
2.805368503588e+01 1.000000000000e+00 
2.805401848330e+01 1.000000000000e+00 
2.902634234680e+01 1.000000000000e+00 
2.902650907051e+01 1.000000000000e+00 
2.902667579422e+01 1.000000000000e+00 
2.902684251794e+01 1.000000000000e+00 
2.902700924165e+01 1.000000000000e+00 
3.000000000000e+01 1.000000000000e+00 
3.000000000000e+01 1.000000000000e+00 
3.000000000000e+01 1.000000000000e+00 
3.000000000000e+01 1.000000000000e+00 
3.000000000000e+01 1.000000000000e+00 
3.002500000000e+01 1.000000000000e+00 
3.002500000000e+01 1.000000000000e+00 
3.002500000000e+01 1.000000000000e+00 
3.002500000000e+01 1.000000000000e+00 
3.002500000000e+01 1.000000000000e+00 
3.005000000000e+01 1.000000000000e+00 
3.005000000000e+01 1.000000000000e+00 
3.005000000000e+01 1.000000000000e+00 
3.005000000000e+01 1.000000000000e+00 
3.005000000000e+01 1.000000000000e+00 
3.007500000000e+01 1.000000000000e+00 
3.007500000000e+01 1.000000000000e+00 
3.007500000000e+01 1.000000000000e+00 
3.007500000000e+01 1.000000000000e+00 
3.007500000000e+01 1.000000000000e+00 
3.010000000000e+01 1.000000000000e+00 
3.010000000000e+01 1.000000000000e+00 
3.010000000000e+01 1.000000000000e+00 
3.010000000000e+01 1.000000000000e+00 
3.010000000000e+01 1.000000000000e+00 
3.012500000000e+01 1.000000000000e+00 
3.012500000000e+01 1.000000000000e+00 
3.012500000000e+01 1.000000000000e+00 
3.012500000000e+01 1.000000000000e+00 
3.012500000000e+01 1.000000000000e+00 
3.015000000000e+01 1.000000000000e+00 
3.015000000000e+01 1.000000000000e+00 
3.015000000000e+01 1.000000000000e+00 