 TITLE = "Profiles along polylines"
 VARIABLES = "DIST" "SATURATION1" 
 ZONE T="TIME=0.000000000000e+00"
9.887730051415e+00 1.000000000000e+00 
9.947643591190e+00 1.000000000000e+00 
1.000755713096e+01 1.000000000000e+00 
1.006747067074e+01 1.000000000000e+00 
1.012738421051e+01 1.000000000000e+00 
1.055813904970e+01 1.000000000000e+00 
1.061605547148e+01 1.000000000000e+00 
1.067397189326e+01 1.000000000000e+00 
1.073188831505e+01 1.000000000000e+00 
1.078980473683e+01 1.000000000000e+00 
1.122854804799e+01 1.000000000000e+00 
1.128446735178e+01 1.000000000000e+00 
1.134038665557e+01 1.000000000000e+00 
1.139630595936e+01 1.000000000000e+00 
1.145222526314e+01 1.000000000000e+00 
1.189895704627e+01 1.000000000000e+00 
1.195287923207e+01 1.000000000000e+00 
1.200680141787e+01 1.000000000000e+00 
1.206072360366e+01 1.000000000000e+00 
1.211464578946e+01 1.000000000000e+00 
1.256936604456e+01 1.000000000000e+00 
1.262129111236e+01 1.000000000000e+00 
1.267321618017e+01 1.000000000000e+00 
1.272514124797e+01 1.000000000000e+00 
1.277706631578e+01 1.000000000000e+00 
1.323977504285e+01 1.000000000000e+00 
1.328970299266e+01 1.000000000000e+00 
1.333963094247e+01 1.000000000000e+00 
1.338955889228e+01 1.000000000000e+00 
1.343948684209e+01 1.000000000000e+00 
1.391018404113e+01 1.000000000000e+00 
1.395811487295e+01 1.000000000000e+00 
1.400604570477e+01 1.000000000000e+00 
1.405397653659e+01 1.000000000000e+00 
1.410190736841e+01 1.000000000000e+00 
1.458059303942e+01 1.000000000000e+00 
1.462652675324e+01 1.000000000000e+00 
1.467246046707e+01 1.000000000000e+00 
1.471839418090e+01 1.000000000000e+00 
1.476432789472e+01 1.000000000000e+00 
1.525100203770e+01 1.000000000000e+00 
1.529493863354e+01 1.000000000000e+00 
1.533887522937e+01 1.000000000000e+00 
1.538281182521e+01 1.000000000000e+00 
1.542674842104e+01 1.000000000000e+00 
1.592141103599e+01 1.000000000000e+00 
1.596335051383e+01 1.000000000000e+00 
1.600528999167e+01 1.000000000000e+00 
1.604722946951e+01 1.000000000000e+00 
1.608916894736e+01 1.000000000000e+00 
1.659182003427e+01 1.000000000000e+00 
1.663176239412e+01 1.000000000000e+00 
1.667170475397e+01 1.000000000000e+00 
1.671164711382e+01 1.000000000000e+00 
1.675158947367e+01 1.000000000000e+00 
1.726222903256e+01 1.000000000000e+00 
1.730017427441e+01 1.000000000000e+00 
1.733811951627e+01 1.000000000000e+00 
1.737606475813e+01 1.000000000000e+00 
1.741400999998e+01 1.000000000000e+00 
1.793263803084e+01 1.000000000000e+00 
1.796858615471e+01 1.000000000000e+00 
1.800453427857e+01 1.000000000000e+00 
1.804048240243e+01 1.000000000000e+00 
1.807643052630e+01 1.000000000000e+00 
1.860304702913e+01 1.000000000000e+00 
1.863699803500e+01 1.000000000000e+00 
1.867094904087e+01 1.000000000000e+00 
1.870490004674e+01 1.000000000000e+00 
1.873885105261e+01 1.000000000000e+00 
1.927345602741e+01 1.000000000000e+00 
1.930540991529e+01 1.000000000000e+00 
1.933736380317e+01 1.000000000000e+00 
1.936931769105e+01 1.000000000000e+00 
1.940127157893e+01 1.000000000000e+00 
1.994386502569e+01 1.000000000000e+00 
1.997382179558e+01 1.000000000000e+00 
2.000377856547e+01 1.000000000000e+00 
2.003373533536e+01 1.000000000000e+00 
2.006369210524e+01 1.000000000000e+00 
2.061427402398e+01 1.000000000000e+00 
2.064223367588e+01 1.000000000000e+00 
2.067019332777e+01 1.000000000000e+00 
2.069815297967e+01 1.000000000000e+00 
2.072611263156e+01 1.000000000000e+00 
2.128468302227e+01 1.000000000000e+00 
2.131064555617e+01 1.000000000000e+00 
2.133660809007e+01 1.000000000000e+00 
2.136257062398e+01 1.000000000000e+00 
2.138853315788e+01 1.000000000000e+00 
2.195509202056e+01 1.000000000000e+00 
2.197905743647e+01 1.000000000000e+00 
2.200302285238e+01 1.000000000000e+00 
2.202698826829e+01 1.000000000000e+00 
2.205095368419e+01 1.000000000000e+00 
2.262550101884e+01 1.000000000000e+00 
2.264746931676e+01 1.000000000000e+00 
2.266943761468e+01 1.000000000000e+00 
2.269140591259e+01 1.000000000000e+00 
2.271337421051e+01 1.000000000000e+00 
2.329591001713e+01 1.000000000000e+00 
2.331588119705e+01 1.000000000000e+00 
2.333585237698e+01 1.000000000000e+00 
2.335582355690e+01 1.000000000000e+00 
2.337579473683e+01 1.000000000000e+00 
2.396631901542e+01 1.000000000000e+00 
2.398429307735e+01 1.000000000000e+00 
2.400226713928e+01 1.000000000000e+00 
2.402024120121e+01 1.000000000000e+00 
2.403821526315e+01 1.000000000000e+00 
2.463672801370e+01 1.000000000000e+00 
2.465270495764e+01 1.000000000000e+00 
2.466868190158e+01 1.000000000000e+00 
2.468465884552e+01 1.000000000000e+00 
2.470063578946e+01 1.000000000000e+00 
2.530713701199e+01 1.000000000000e+00 
2.532111683794e+01 1.000000000000e+00 
2.533509666389e+01 1.000000000000e+00 
2.534907648983e+01 1.000000000000e+00 
2.536305631578e+01 1.000000000000e+00 
2.597754601028e+01 1.000000000000e+00 
2.598952871823e+01 1.000000000000e+00 
2.600151142619e+01 1.000000000000e+00 
2.601349413414e+01 1.000000000000e+00 
2.602547684210e+01 1.000000000000e+00 
2.664795500856e+01 1.000000000000e+00 
2.665794059853e+01 1.000000000000e+00 
2.666792618849e+01 1.000000000000e+00 
2.667791177845e+01 1.000000000000e+00 
2.668789736841e+01 1.000000000000e+00 
2.731836400685e+01 1.000000000000e+00 
2.732635247882e+01 1.000000000000e+00 
2.733434095079e+01 1.000000000000e+00 
2.734232942276e+01 1.000000000000e+00 
2.735031789473e+01 1.000000000000e+00 
2.798877300514e+01 1.000000000000e+00 
2.799476435912e+01 1.000000000000e+00 
2.800075571309e+01 1.000000000000e+00 
2.800674706707e+01 1.000000000000e+00 
2.801273842105e+01 1.000000000000e+00 
2.865918200343e+01 1.000000000000e+00 
2.866317623941e+01 1.000000000000e+00 
2.866717047540e+01 1.000000000000e+00 
2.867116471138e+01 1.000000000000e+00 
2.867515894737e+01 1.000000000000e+00 
2.932959100171e+01 1.000000000000e+00 
2.933158811971e+01 1.000000000000e+00 
2.933358523770e+01 1.000000000000e+00 
2.933558235569e+01 1.000000000000e+00 
2.933757947368e+01 1.000000000000e+00 
3.000000000000e+01 1.000000000000e+00 
3.000000000000e+01 1.000000000000e+00 
3.000000000000e+01 1.000000000000e+00 
3.000000000000e+01 1.000000000000e+00 
3.000000000000e+01 1.000000000000e+00 
3.002500000000e+01 9.876207709446e-01 
3.002500000000e+01 9.876207709446e-01 
3.002500000000e+01 9.876207709446e-01 
3.002500000000e+01 9.876207709446e-01 
3.002500000000e+01 9.876207709446e-01 
3.005000000000e+01 9.697756439369e-01 
3.005000000000e+01 9.697756439369e-01 
3.005000000000e+01 9.697756439369e-01 
3.005000000000e+01 9.697756439369e-01 
3.005000000000e+01 9.697756439369e-01 
3.007500000000e+01 9.507134089444e-01 
3.007500000000e+01 9.507134089444e-01 
3.007500000000e+01 9.507134089444e-01 
3.007500000000e+01 9.507134089444e-01 
3.007500000000e+01 9.507134089444e-01 
3.010000000000e+01 9.315621650298e-01 
3.010000000000e+01 9.315621650298e-01 
3.010000000000e+01 9.315621650298e-01 
3.010000000000e+01 9.315621650298e-01 
3.010000000000e+01 9.315621650298e-01 
3.012500000000e+01 9.128758324042e-01 
3.012500000000e+01 9.128758324042e-01 
3.012500000000e+01 9.128758324042e-01 
3.012500000000e+01 9.128758324042e-01 
3.012500000000e+01 9.128758324042e-01 
3.015000000000e+01 8.949248043380e-01 
3.015000000000e+01 8.949248043380e-01 
3.015000000000e+01 8.949248043380e-01 
3.015000000000e+01 8.949248043380e-01 
3.015000000000e+01 8.949248043380e-01 
3.017500000000e+01 8.778290027968e-01 
3.017500000000e+01 8.778290027968e-01 
3.017500000000e+01 8.778290027968e-01 
3.017500000000e+01 8.778290027968e-01 
3.017500000000e+01 8.778290027968e-01 
3.020000000000e+01 8.616255702900e-01 
3.020000000000e+01 8.616255702900e-01 
3.020000000000e+01 8.616255702900e-01 
3.020000000000e+01 8.616255702900e-01 
3.020000000000e+01 8.616255702900e-01 
3.022500000000e+01 8.463059583920e-01 
3.022500000000e+01 8.463059583920e-01 
3.022500000000e+01 8.463059583920e-01 
3.022500000000e+01 8.463059583920e-01 
3.022500000000e+01 8.463059583920e-01 
3.025000000000e+01 8.318370344398e-01 
3.025000000000e+01 8.318370344398e-01 
3.025000000000e+01 8.318370344398e-01 
3.025000000000e+01 8.318370344398e-01 
3.025000000000e+01 8.318370344398e-01 
3.027500000000e+01 8.181733156316e-01 
3.027500000000e+01 8.181733156316e-01 
3.027500000000e+01 8.181733156316e-01 
3.027500000000e+01 8.181733156316e-01 
3.027500000000e+01 8.181733156316e-01 
3.030000000000e+01 8.052640970350e-01 
3.030000000000e+01 8.052640970350e-01 
3.030000000000e+01 8.052640970350e-01 
3.030000000000e+01 8.052640970350e-01 
3.030000000000e+01 8.052640970350e-01 
3.032500000000e+01 7.930575753856e-01 
3.032500000000e+01 7.930575753856e-01 
3.032500000000e+01 7.930575753856e-01 
3.032500000000e+01 7.930575753856e-01 
3.032500000000e+01 7.930575753856e-01 
3.035000000000e+01 7.815031815402e-01 
3.035000000000e+01 7.815031815402e-01 
3.035000000000e+01 7.815031815402e-01 
3.035000000000e+01 7.815031815402e-01 
3.035000000000e+01 7.815031815402e-01 
3.037500000000e+01 7.705528376764e-01 
3.037500000000e+01 7.705528376764e-01 
3.037500000000e+01 7.705528376764e-01 
3.037500000000e+01 7.705528376764e-01 
3.037500000000e+01 7.705528376764e-01 
3.040000000000e+01 7.601615689674e-01 
3.040000000000e+01 7.601615689674e-01 
3.040000000000e+01 7.601615689674e-01 
3.040000000000e+01 7.601615689674e-01 
3.040000000000e+01 7.601615689674e-01 
3.042500000000e+01 7.502877306002e-01 
3.042500000000e+01 7.502877306002e-01 
3.042500000000e+01 7.502877306002e-01 
3.042500000000e+01 7.502877306002e-01 
3.042500000000e+01 7.502877306002e-01 
3.045000000000e+01 7.408930096824e-01 
3.045000000000e+01 7.408930096824e-01 
3.045000000000e+01 7.408930096824e-01 
3.045000000000e+01 7.408930096824e-01 
3.045000000000e+01 7.408930096824e-01 
3.047500000000e+01 7.319422999608e-01 
3.047500000000e+01 7.319422999608e-01 
3.047500000000e+01 7.319422999608e-01 
3.047500000000e+01 7.319422999608e-01 
3.047500000000e+01 7.319422999608e-01 
3.050000000000e+01 7.234035093991e-01 
3.050000000000e+01 7.234035093991e-01 
3.050000000000e+01 7.234035093991e-01 
3.050000000000e+01 7.234035093991e-01 
3.050000000000e+01 7.234035093991e-01 
3.052500000000e+01 7.152473371957e-01 
3.052500000000e+01 7.152473371957e-01 
3.052500000000e+01 7.152473371957e-01 
3.052500000000e+01 7.152473371957e-01 
3.052500000000e+01 7.152473371957e-01 
3.055000000000e+01 7.074470422112e-01 
3.055000000000e+01 7.074470422112e-01 
3.055000000000e+01 7.074470422112e-01 
3.055000000000e+01 7.074470422112e-01 
3.055000000000e+01 7.074470422112e-01 
3.057500000000e+01 6.999782156504e-01 
3.057500000000e+01 6.999782156504e-01 
3.057500000000e+01 6.999782156504e-01 
3.057500000000e+01 6.999782156504e-01 
3.057500000000e+01 6.999782156504e-01 
3.060000000000e+01 6.928185651596e-01 
3.060000000000e+01 6.928185651596e-01 
3.060000000000e+01 6.928185651596e-01 
3.060000000000e+01 6.928185651596e-01 
3.060000000000e+01 6.928185651596e-01 
3.062500000000e+01 6.859477139679e-01 
3.062500000000e+01 6.859477139679e-01 
3.062500000000e+01 6.859477139679e-01 
3.062500000000e+01 6.859477139679e-01 
3.062500000000e+01 6.859477139679e-01 
3.065000000000e+01 6.793470165436e-01 
3.065000000000e+01 6.793470165436e-01 
3.065000000000e+01 6.793470165436e-01 
3.065000000000e+01 6.793470165436e-01 
3.065000000000e+01 6.793470165436e-01 
3.067500000000e+01 6.729993909360e-01 
3.067500000000e+01 6.729993909360e-01 
3.067500000000e+01 6.729993909360e-01 
3.067500000000e+01 6.729993909360e-01 
3.067500000000e+01 6.729993909360e-01 
3.070000000000e+01 6.668891672206e-01 
3.070000000000e+01 6.668891672206e-01 
3.070000000000e+01 6.668891672206e-01 
3.070000000000e+01 6.668891672206e-01 
3.070000000000e+01 6.668891672206e-01 
3.072500000000e+01 6.610019510587e-01 
3.072500000000e+01 6.610019510587e-01 
3.072500000000e+01 6.610019510587e-01 
3.072500000000e+01 6.610019510587e-01 
3.072500000000e+01 6.610019510587e-01 
3.075000000000e+01 6.553245011865e-01 
3.075000000000e+01 6.553245011865e-01 
3.075000000000e+01 6.553245011865e-01 
3.075000000000e+01 6.553245011865e-01 
3.075000000000e+01 6.553245011865e-01 
3.077500000000e+01 6.498446195878e-01 
3.077500000000e+01 6.498446195878e-01 
3.077500000000e+01 6.498446195878e-01 
3.077500000000e+01 6.498446195878e-01 
3.077500000000e+01 6.498446195878e-01 
3.080000000000e+01 6.445510531188e-01 
3.080000000000e+01 6.445510531188e-01 
3.080000000000e+01 6.445510531188e-01 
3.080000000000e+01 6.445510531188e-01 
3.080000000000e+01 6.445510531188e-01 
3.082500000000e+01 6.394334054150e-01 
3.082500000000e+01 6.394334054150e-01 
3.082500000000e+01 6.394334054150e-01 
3.082500000000e+01 6.394334054150e-01 
3.082500000000e+01 6.394334054150e-01 
3.085000000000e+01 6.344820579917e-01 
3.085000000000e+01 6.344820579917e-01 
3.085000000000e+01 6.344820579917e-01 
3.085000000000e+01 6.344820579917e-01 
3.085000000000e+01 6.344820579917e-01 
3.087500000000e+01 6.296880995462e-01 
3.087500000000e+01 6.296880995462e-01 
3.087500000000e+01 6.296880995462e-01 
3.087500000000e+01 6.296880995462e-01 
3.087500000000e+01 6.296880995462e-01 
3.090000000000e+01 6.250432625624e-01 
3.090000000000e+01 6.250432625624e-01 
3.090000000000e+01 6.250432625624e-01 
3.090000000000e+01 6.250432625624e-01 
3.090000000000e+01 6.250432625624e-01 
3.092500000000e+01 6.205398664126e-01 
3.092500000000e+01 6.205398664126e-01 
3.092500000000e+01 6.205398664126e-01 
3.092500000000e+01 6.205398664126e-01 
3.092500000000e+01 6.205398664126e-01 
3.095000000000e+01 6.161707662369e-01 
3.095000000000e+01 6.161707662369e-01 
3.095000000000e+01 6.161707662369e-01 
3.095000000000e+01 6.161707662369e-01 
3.095000000000e+01 6.161707662369e-01 
3.097500000000e+01 6.119293069613e-01 
3.097500000000e+01 6.119293069613e-01 
3.097500000000e+01 6.119293069613e-01 
3.097500000000e+01 6.119293069613e-01 
3.097500000000e+01 6.119293069613e-01 
3.100000000000e+01 6.078092818871e-01 
3.100000000000e+01 6.078092818871e-01 
3.100000000000e+01 6.078092818871e-01 
3.100000000000e+01 6.078092818871e-01 
3.100000000000e+01 6.078092818871e-01 
3.102500000000e+01 6.038048953494e-01 
3.102500000000e+01 6.038048953494e-01 
3.102500000000e+01 6.038048953494e-01 
3.102500000000e+01 6.038048953494e-01 
3.102500000000e+01 6.038048953494e-01 
3.105000000000e+01 5.999107290013e-01 
3.105000000000e+01 5.999107290013e-01 
3.105000000000e+01 5.999107290013e-01 
3.105000000000e+01 5.999107290013e-01 
3.105000000000e+01 5.999107290013e-01 
3.107500000000e+01 5.961217113309e-01 
3.107500000000e+01 5.961217113309e-01 
3.107500000000e+01 5.961217113309e-01 
3.107500000000e+01 5.961217113309e-01 
3.107500000000e+01 5.961217113309e-01 
3.110000000000e+01 5.924330900627e-01 
3.110000000000e+01 5.924330900627e-01 
3.110000000000e+01 5.924330900627e-01 
3.110000000000e+01 5.924330900627e-01 
3.110000000000e+01 5.924330900627e-01 
3.112500000000e+01 5.888404071392e-01 
3.112500000000e+01 5.888404071392e-01 
3.112500000000e+01 5.888404071392e-01 
3.112500000000e+01 5.888404071392e-01 
3.112500000000e+01 5.888404071392e-01 
3.115000000000e+01 5.853394760078e-01 
3.115000000000e+01 5.853394760078e-01 
3.115000000000e+01 5.853394760078e-01 
3.115000000000e+01 5.853394760078e-01 
3.115000000000e+01 5.853394760078e-01 
3.117500000000e+01 5.819263609758e-01 
3.117500000000e+01 5.819263609758e-01 
3.117500000000e+01 5.819263609758e-01 
3.117500000000e+01 5.819263609758e-01 
3.117500000000e+01 5.819263609758e-01 
3.120000000000e+01 5.785973584173e-01 
3.120000000000e+01 5.785973584173e-01 
3.120000000000e+01 5.785973584173e-01 
3.120000000000e+01 5.785973584173e-01 
3.120000000000e+01 5.785973584173e-01 
3.122500000000e+01 5.753489796460e-01 
3.122500000000e+01 5.753489796460e-01 
3.122500000000e+01 5.753489796460e-01 
3.122500000000e+01 5.753489796460e-01 
3.122500000000e+01 5.753489796460e-01 
3.125000000000e+01 5.721779352840e-01 
3.125000000000e+01 5.721779352840e-01 
3.125000000000e+01 5.721779352840e-01 
3.125000000000e+01 5.721779352840e-01 
3.125000000000e+01 5.721779352840e-01 
3.127500000000e+01 5.690811209785e-01 
3.127500000000e+01 5.690811209785e-01 
3.127500000000e+01 5.690811209785e-01 
3.127500000000e+01 5.690811209785e-01 
3.127500000000e+01 5.690811209785e-01 
3.130000000000e+01 5.660556043336e-01 
3.130000000000e+01 5.660556043336e-01 
3.130000000000e+01 5.660556043336e-01 
3.130000000000e+01 5.660556043336e-01 
3.130000000000e+01 5.660556043336e-01 
3.132500000000e+01 5.630986129391e-01 
3.132500000000e+01 5.630986129391e-01 
3.132500000000e+01 5.630986129391e-01 
3.132500000000e+01 5.630986129391e-01 
3.132500000000e+01 5.630986129391e-01 
3.135000000000e+01 5.602075233904e-01 
3.135000000000e+01 5.602075233904e-01 
3.135000000000e+01 5.602075233904e-01 
3.135000000000e+01 5.602075233904e-01 
3.135000000000e+01 5.602075233904e-01 
3.137500000000e+01 5.573798512060e-01 
3.137500000000e+01 5.573798512060e-01 
3.137500000000e+01 5.573798512060e-01 
3.137500000000e+01 5.573798512060e-01 
3.137500000000e+01 5.573798512060e-01 
3.140000000000e+01 5.546132415581e-01 
3.140000000000e+01 5.546132415581e-01 
3.140000000000e+01 5.546132415581e-01 
3.140000000000e+01 5.546132415581e-01 
3.140000000000e+01 5.546132415581e-01 
3.142500000000e+01 5.519054607414e-01 
3.142500000000e+01 5.519054607414e-01 
3.142500000000e+01 5.519054607414e-01 
3.142500000000e+01 5.519054607414e-01 
3.142500000000e+01 5.519054607414e-01 
3.145000000000e+01 5.492543883110e-01 
3.145000000000e+01 5.492543883110e-01 
3.145000000000e+01 5.492543883110e-01 
3.145000000000e+01 5.492543883110e-01 
3.145000000000e+01 5.492543883110e-01 
3.147500000000e+01 5.466580098318e-01 
3.147500000000e+01 5.466580098318e-01 
3.147500000000e+01 5.466580098318e-01 
3.147500000000e+01 5.466580098318e-01 
3.147500000000e+01 5.466580098318e-01 
3.150000000000e+01 5.441144101810e-01 
3.150000000000e+01 5.441144101810e-01 
3.150000000000e+01 5.441144101810e-01 
3.150000000000e+01 5.441144101810e-01 
3.150000000000e+01 5.441144101810e-01 
3.152500000000e+01 5.416217673588e-01 
3.152500000000e+01 5.416217673588e-01 
3.152500000000e+01 5.416217673588e-01 
3.152500000000e+01 5.416217673588e-01 
3.152500000000e+01 5.416217673588e-01 
3.155000000000e+01 5.391783467591e-01 
3.155000000000e+01 5.391783467591e-01 
3.155000000000e+01 5.391783467591e-01 
3.155000000000e+01 5.391783467591e-01 
3.155000000000e+01 5.391783467591e-01 
3.157500000000e+01 5.367824958643e-01 
3.157500000000e+01 5.367824958643e-01 
3.157500000000e+01 5.367824958643e-01 
3.157500000000e+01 5.367824958643e-01 
3.157500000000e+01 5.367824958643e-01 
3.160000000000e+01 5.344326393247e-01 
3.160000000000e+01 5.344326393247e-01 
3.160000000000e+01 5.344326393247e-01 
3.160000000000e+01 5.344326393247e-01 
3.160000000000e+01 5.344326393247e-01 
3.162500000000e+01 5.321272743928e-01 
3.162500000000e+01 5.321272743928e-01 
3.162500000000e+01 5.321272743928e-01 
3.162500000000e+01 5.321272743928e-01 
3.162500000000e+01 5.321272743928e-01 
3.165000000000e+01 5.298649666811e-01 
3.165000000000e+01 5.298649666811e-01 
3.165000000000e+01 5.298649666811e-01 
3.165000000000e+01 5.298649666811e-01 
3.165000000000e+01 5.298649666811e-01 
3.167500000000e+01 5.276443462180e-01 
3.167500000000e+01 5.276443462180e-01 
3.167500000000e+01 5.276443462180e-01 
3.167500000000e+01 5.276443462180e-01 
3.167500000000e+01 5.276443462180e-01 
3.170000000000e+01 5.254641037767e-01 
3.170000000000e+01 5.254641037767e-01 
3.170000000000e+01 5.254641037767e-01 
3.170000000000e+01 5.254641037767e-01 
3.170000000000e+01 5.254641037767e-01 
3.172500000000e+01 5.233229874560e-01 
3.172500000000e+01 5.233229874560e-01 
3.172500000000e+01 5.233229874560e-01 
3.172500000000e+01 5.233229874560e-01 
3.172500000000e+01 5.233229874560e-01 
3.175000000000e+01 5.212197994921e-01 
3.175000000000e+01 5.212197994921e-01 
3.175000000000e+01 5.212197994921e-01 
3.175000000000e+01 5.212197994921e-01 
3.175000000000e+01 5.212197994921e-01 
3.177500000000e+01 5.191533932842e-01 
3.177500000000e+01 5.191533932842e-01 
3.177500000000e+01 5.191533932842e-01 
3.177500000000e+01 5.191533932842e-01 
3.177500000000e+01 5.191533932842e-01 
3.180000000000e+01 5.171226706164e-01 
3.180000000000e+01 5.171226706164e-01 
3.180000000000e+01 5.171226706164e-01 
3.180000000000e+01 5.171226706164e-01 
3.180000000000e+01 5.171226706164e-01 
3.182500000000e+01 5.151265790614e-01 
3.182500000000e+01 5.151265790614e-01 
3.182500000000e+01 5.151265790614e-01 
3.182500000000e+01 5.151265790614e-01 
3.182500000000e+01 5.151265790614e-01 
3.185000000000e+01 5.131641095520e-01 
3.185000000000e+01 5.131641095520e-01 
3.185000000000e+01 5.131641095520e-01 
3.185000000000e+01 5.131641095520e-01 
3.185000000000e+01 5.131641095520e-01 
3.187500000000e+01 5.112342941078e-01 
3.187500000000e+01 5.112342941078e-01 
3.187500000000e+01 5.112342941078e-01 
3.187500000000e+01 5.112342941078e-01 
3.187500000000e+01 5.112342941078e-01 
3.190000000000e+01 5.093362037054e-01 
3.190000000000e+01 5.093362037054e-01 
3.190000000000e+01 5.093362037054e-01 
3.190000000000e+01 5.093362037054e-01 
3.190000000000e+01 5.093362037054e-01 
3.192500000000e+01 5.074689462822e-01 
3.192500000000e+01 5.074689462822e-01 
3.192500000000e+01 5.074689462822e-01 
3.192500000000e+01 5.074689462822e-01 
3.192500000000e+01 5.074689462822e-01 
3.195000000000e+01 5.056316648631e-01 
3.195000000000e+01 5.056316648631e-01 
3.195000000000e+01 5.056316648631e-01 
3.195000000000e+01 5.056316648631e-01 
3.195000000000e+01 5.056316648631e-01 
3.197500000000e+01 5.038235358020e-01 
3.197500000000e+01 5.038235358020e-01 
3.197500000000e+01 5.038235358020e-01 
3.197500000000e+01 5.038235358020e-01 
3.197500000000e+01 5.038235358020e-01 
3.200000000000e+01 4.982345039233e-01 
3.200000000000e+01 4.982856705016e-01 
3.200000000000e+01 4.983112066932e-01 
3.200000000000e+01 4.982601028040e-01 
3.200000000000e+01 4.983367110531e-01 
3.457754601028e+01 3.945316612591e-01 
3.458952871824e+01 3.942274373986e-01 
3.460151142619e+01 3.939242404390e-01 
3.461349413415e+01 3.936220644381e-01 
3.462547684210e+01 3.933209035021e-01 
3.715509202057e+01 3.497921940015e-01 
3.717905743648e+01 3.494654068185e-01 
3.720302285239e+01 3.491400606958e-01 
3.722698826830e+01 3.488161445981e-01 
3.725095368420e+01 3.484936476103e-01 
3.973263803085e+01 3.217534799129e-01 
3.976858615471e+01 3.214282721649e-01 
3.980453427858e+01 3.211046469677e-01 
3.984048240244e+01 3.207825909165e-01 
3.987643052631e+01 3.204620907677e-01 
4.231018404113e+01 3.019905374066e-01 
4.235811487295e+01 3.016731821366e-01 
4.240604570477e+01 3.013574560509e-01 
4.245397653659e+01 3.010433445841e-01 
4.250190736841e+01 3.007308333558e-01 
4.488773005142e+01 2.869979916295e-01 
4.494764359119e+01 2.866898117849e-01 
4.500755713096e+01 2.863832683373e-01 
4.506747067074e+01 2.860783461526e-01 
4.512738421051e+01 2.857750302955e-01 
 TITLE = "Profiles along polylines"
 VARIABLES = "DIST" "SATURATION1" 
 ZONE T="TIME=1.797693134862e+308"
9.887730051415e+00 1.000000000000e+00 
9.947643591190e+00 1.000000000000e+00 
1.000755713096e+01 1.000000000000e+00 
1.006747067074e+01 1.000000000000e+00 
1.012738421051e+01 1.000000000000e+00 
1.055813904970e+01 1.000000000000e+00 
1.061605547148e+01 1.000000000000e+00 
1.067397189326e+01 1.000000000000e+00 
1.073188831505e+01 1.000000000000e+00 
1.078980473683e+01 1.000000000000e+00 
1.122854804799e+01 1.000000000000e+00 
1.128446735178e+01 1.000000000000e+00 
1.134038665557e+01 1.000000000000e+00 
1.139630595936e+01 1.000000000000e+00 
1.145222526314e+01 1.000000000000e+00 
1.189895704627e+01 1.000000000000e+00 
1.195287923207e+01 1.000000000000e+00 
1.200680141787e+01 1.000000000000e+00 
1.206072360366e+01 1.000000000000e+00 
1.211464578946e+01 1.000000000000e+00 
1.256936604456e+01 1.000000000000e+00 
1.262129111236e+01 1.000000000000e+00 
1.267321618017e+01 1.000000000000e+00 
1.272514124797e+01 1.000000000000e+00 
1.277706631578e+01 1.000000000000e+00 
1.323977504285e+01 1.000000000000e+00 
1.328970299266e+01 1.000000000000e+00 
1.333963094247e+01 1.000000000000e+00 
1.338955889228e+01 1.000000000000e+00 
1.343948684209e+01 1.000000000000e+00 
1.391018404113e+01 1.000000000000e+00 
1.395811487295e+01 1.000000000000e+00 
1.400604570477e+01 1.000000000000e+00 
1.405397653659e+01 1.000000000000e+00 
1.410190736841e+01 1.000000000000e+00 
1.458059303942e+01 1.000000000000e+00 
1.462652675324e+01 1.000000000000e+00 
1.467246046707e+01 1.000000000000e+00 
1.471839418090e+01 1.000000000000e+00 
1.476432789472e+01 1.000000000000e+00 
1.525100203770e+01 1.000000000000e+00 
1.529493863354e+01 1.000000000000e+00 
1.533887522937e+01 1.000000000000e+00 
1.538281182521e+01 1.000000000000e+00 
1.542674842104e+01 1.000000000000e+00 
1.592141103599e+01 1.000000000000e+00 
1.596335051383e+01 1.000000000000e+00 
1.600528999167e+01 1.000000000000e+00 
1.604722946951e+01 1.000000000000e+00 
1.608916894736e+01 1.000000000000e+00 
1.659182003427e+01 1.000000000000e+00 
1.663176239412e+01 1.000000000000e+00 
1.667170475397e+01 1.000000000000e+00 
1.671164711382e+01 1.000000000000e+00 
1.675158947367e+01 1.000000000000e+00 
1.726222903256e+01 1.000000000000e+00 
1.730017427441e+01 1.000000000000e+00 
1.733811951627e+01 1.000000000000e+00 
1.737606475813e+01 1.000000000000e+00 
1.741400999998e+01 1.000000000000e+00 
1.793263803084e+01 1.000000000000e+00 
1.796858615471e+01 1.000000000000e+00 
1.800453427857e+01 1.000000000000e+00 
1.804048240243e+01 1.000000000000e+00 
1.807643052630e+01 1.000000000000e+00 
1.860304702913e+01 1.000000000000e+00 
1.863699803500e+01 1.000000000000e+00 
1.867094904087e+01 1.000000000000e+00 
1.870490004674e+01 1.000000000000e+00 
1.873885105261e+01 1.000000000000e+00 
1.927345602741e+01 1.000000000000e+00 
1.930540991529e+01 1.000000000000e+00 
1.933736380317e+01 1.000000000000e+00 
1.936931769105e+01 1.000000000000e+00 
1.940127157893e+01 1.000000000000e+00 
1.994386502569e+01 1.000000000000e+00 
1.997382179558e+01 1.000000000000e+00 
2.000377856547e+01 1.000000000000e+00 
2.003373533536e+01 1.000000000000e+00 
2.006369210524e+01 1.000000000000e+00 
2.061427402398e+01 1.000000000000e+00 
2.064223367588e+01 1.000000000000e+00 
2.067019332777e+01 1.000000000000e+00 
2.069815297967e+01 1.000000000000e+00 
2.072611263156e+01 1.000000000000e+00 
2.128468302227e+01 1.000000000000e+00 
2.131064555617e+01 1.000000000000e+00 
2.133660809007e+01 1.000000000000e+00 
2.136257062398e+01 1.000000000000e+00 
2.138853315788e+01 1.000000000000e+00 
2.195509202056e+01 1.000000000000e+00 
2.197905743647e+01 1.000000000000e+00 
2.200302285238e+01 1.000000000000e+00 
2.202698826829e+01 1.000000000000e+00 
2.205095368419e+01 1.000000000000e+00 
2.262550101884e+01 1.000000000000e+00 
2.264746931676e+01 1.000000000000e+00 
2.266943761468e+01 1.000000000000e+00 
2.269140591259e+01 1.000000000000e+00 
2.271337421051e+01 1.000000000000e+00 
2.329591001713e+01 1.000000000000e+00 
2.331588119705e+01 1.000000000000e+00 
2.333585237698e+01 1.000000000000e+00 
2.335582355690e+01 1.000000000000e+00 
2.337579473683e+01 1.000000000000e+00 
2.396631901542e+01 1.000000000000e+00 
2.398429307735e+01 1.000000000000e+00 
2.400226713928e+01 1.000000000000e+00 
2.402024120121e+01 1.000000000000e+00 
2.403821526315e+01 1.000000000000e+00 
2.463672801370e+01 1.000000000000e+00 
2.465270495764e+01 1.000000000000e+00 
2.466868190158e+01 1.000000000000e+00 
2.468465884552e+01 1.000000000000e+00 
2.470063578946e+01 1.000000000000e+00 
2.530713701199e+01 1.000000000000e+00 
2.532111683794e+01 1.000000000000e+00 
2.533509666389e+01 1.000000000000e+00 
2.534907648983e+01 1.000000000000e+00 
2.536305631578e+01 1.000000000000e+00 
2.597754601028e+01 1.000000000000e+00 
2.598952871823e+01 1.000000000000e+00 
2.600151142619e+01 1.000000000000e+00 
2.601349413414e+01 1.000000000000e+00 
2.602547684210e+01 1.000000000000e+00 
2.664795500856e+01 1.000000000000e+00 
2.665794059853e+01 1.000000000000e+00 
2.666792618849e+01 1.000000000000e+00 
2.667791177845e+01 1.000000000000e+00 
2.668789736841e+01 1.000000000000e+00 
2.731836400685e+01 1.000000000000e+00 
2.732635247882e+01 1.000000000000e+00 
2.733434095079e+01 1.000000000000e+00 
2.734232942276e+01 1.000000000000e+00 
2.735031789473e+01 1.000000000000e+00 
2.798877300514e+01 1.000000000000e+00 
2.799476435912e+01 1.000000000000e+00 
2.800075571309e+01 1.000000000000e+00 
2.800674706707e+01 1.000000000000e+00 
2.801273842105e+01 1.000000000000e+00 
2.865918200343e+01 1.000000000000e+00 
2.866317623941e+01 1.000000000000e+00 
2.866717047540e+01 1.000000000000e+00 
2.867116471138e+01 1.000000000000e+00 
2.867515894737e+01 1.000000000000e+00 
2.932959100171e+01 1.000000000000e+00 
2.933158811971e+01 1.000000000000e+00 
2.933358523770e+01 1.000000000000e+00 
2.933558235569e+01 1.000000000000e+00 
2.933757947368e+01 1.000000000000e+00 
3.000000000000e+01 1.000000000000e+00 
3.000000000000e+01 1.000000000000e+00 
3.000000000000e+01 1.000000000000e+00 
3.000000000000e+01 1.000000000000e+00 
3.000000000000e+01 1.000000000000e+00 
3.002500000000e+01 1.000000000000e+00 
3.002500000000e+01 1.000000000000e+00 
3.002500000000e+01 1.000000000000e+00 
3.002500000000e+01 1.000000000000e+00 
3.002500000000e+01 1.000000000000e+00 
3.005000000000e+01 1.000000000000e+00 
3.005000000000e+01 1.000000000000e+00 
3.005000000000e+01 1.000000000000e+00 
3.005000000000e+01 1.000000000000e+00 
3.005000000000e+01 1.000000000000e+00 
3.007500000000e+01 1.000000000000e+00 
3.007500000000e+01 1.000000000000e+00 
3.007500000000e+01 1.000000000000e+00 
3.007500000000e+01 1.000000000000e+00 
3.007500000000e+01 1.000000000000e+00 
3.010000000000e+01 1.000000000000e+00 
3.010000000000e+01 1.000000000000e+00 
3.010000000000e+01 1.000000000000e+00 
3.010000000000e+01 1.000000000000e+00 
3.010000000000e+01 1.000000000000e+00 
3.012500000000e+01 1.000000000000e+00 
3.012500000000e+01 1.000000000000e+00 
3.012500000000e+01 1.000000000000e+00 
3.012500000000e+01 1.000000000000e+00 
3.012500000000e+01 1.000000000000e+00 
3.015000000000e+01 1.000000000000e+00 
3.015000000000e+01 1.000000000000e+00 
3.015000000000e+01 1.000000000000e+00 