 TITLE = "Profiles along polylines"
 VARIABLES = "DIST" "SATURATION1" 
 ZONE T="TIME=0.000000000000e+00"
1.490510002377e+00 1.000000000000e+00 
1.495511713794e+00 1.000000000000e+00 
1.500513425211e+00 1.000000000000e+00 
1.505515136629e+00 1.000000000000e+00 
1.510516848046e+00 1.000000000000e+00 
2.440826335630e+00 1.000000000000e+00 
2.445661323334e+00 1.000000000000e+00 
2.450496311037e+00 1.000000000000e+00 
2.455331298741e+00 1.000000000000e+00 
2.460166286444e+00 1.000000000000e+00 
3.391142668884e+00 1.000000000000e+00 
3.395810932874e+00 1.000000000000e+00 
3.400479196863e+00 1.000000000000e+00 
3.405147460853e+00 1.000000000000e+00 
3.409815724842e+00 1.000000000000e+00 
4.341459002139e+00 1.000000000000e+00 
4.345960542414e+00 1.000000000000e+00 
4.350462082690e+00 1.000000000000e+00 
4.354963622966e+00 1.000000000000e+00 
4.359465163241e+00 1.000000000000e+00 
5.291775335393e+00 1.000000000000e+00 
5.296110151955e+00 1.000000000000e+00 
5.300444968516e+00 1.000000000000e+00 
5.304779785078e+00 1.000000000000e+00 
5.309114601640e+00 1.000000000000e+00 
6.242091668646e+00 1.000000000000e+00 
6.246259761494e+00 1.000000000000e+00 
6.250427854342e+00 1.000000000000e+00 
6.254595947190e+00 1.000000000000e+00 
6.258764040037e+00 1.000000000000e+00 
7.192408001900e+00 1.000000000000e+00 
7.196409371033e+00 1.000000000000e+00 
7.200410740167e+00 1.000000000000e+00 
7.204412109301e+00 1.000000000000e+00 
7.208413478435e+00 1.000000000000e+00 
8.142724335153e+00 1.000000000000e+00 
8.146558980573e+00 1.000000000000e+00 
8.150393625993e+00 1.000000000000e+00 
8.154228271413e+00 1.000000000000e+00 
8.158062916833e+00 1.000000000000e+00 
9.093040668406e+00 1.000000000000e+00 
9.096708590112e+00 1.000000000000e+00 
9.100376511818e+00 1.000000000000e+00 
9.104044433524e+00 1.000000000000e+00 
9.107712355231e+00 1.000000000000e+00 
1.004335700166e+01 1.000000000000e+00 
1.004685819965e+01 1.000000000000e+00 
1.005035939764e+01 1.000000000000e+00 
1.005386059563e+01 1.000000000000e+00 
1.005736179363e+01 1.000000000000e+00 
1.099367333491e+01 1.000000000000e+00 
1.099700780919e+01 1.000000000000e+00 
1.100034228346e+01 1.000000000000e+00 
1.100367675774e+01 1.000000000000e+00 
1.100701123202e+01 1.000000000000e+00 
1.194398966816e+01 1.000000000000e+00 
1.194715741872e+01 1.000000000000e+00 
1.195032516929e+01 1.000000000000e+00 
1.195349291985e+01 1.000000000000e+00 
1.195666067042e+01 1.000000000000e+00 
1.289430600141e+01 1.000000000000e+00 
1.289730702826e+01 1.000000000000e+00 
1.290030805511e+01 1.000000000000e+00 
1.290330908196e+01 1.000000000000e+00 
1.290631010881e+01 1.000000000000e+00 
1.384462233466e+01 1.000000000000e+00 
1.384745663780e+01 1.000000000000e+00 
1.385029094093e+01 1.000000000000e+00 
1.385312524407e+01 1.000000000000e+00 
1.385595954721e+01 1.000000000000e+00 
1.479493866791e+01 1.000000000000e+00 
1.479760624733e+01 1.000000000000e+00 
1.480027382676e+01 1.000000000000e+00 
1.480294140618e+01 1.000000000000e+00 
1.480560898560e+01 1.000000000000e+00 
1.574525500116e+01 1.000000000000e+00 
1.574775585687e+01 1.000000000000e+00 
1.575025671258e+01 1.000000000000e+00 
1.575275756829e+01 1.000000000000e+00 
1.575525842400e+01 1.000000000000e+00 
1.669557133442e+01 1.000000000000e+00 
1.669790546641e+01 1.000000000000e+00 
1.670023959841e+01 1.000000000000e+00 
1.670257373040e+01 1.000000000000e+00 
1.670490786240e+01 1.000000000000e+00 
1.764588766767e+01 1.000000000000e+00 
1.764805507595e+01 1.000000000000e+00 
1.765022248424e+01 1.000000000000e+00 
1.765238989252e+01 1.000000000000e+00 
1.765455730080e+01 1.000000000000e+00 
1.859620400093e+01 1.000000000000e+00 
1.859820468550e+01 1.000000000000e+00 
1.860020537006e+01 1.000000000000e+00 
1.860220605463e+01 1.000000000000e+00 
1.860420673920e+01 1.000000000000e+00 
1.954652033419e+01 1.000000000000e+00 
1.954835429504e+01 1.000000000000e+00 
1.955018825589e+01 1.000000000000e+00 
1.955202221674e+01 1.000000000000e+00 
1.955385617760e+01 1.000000000000e+00 
2.049683666744e+01 1.000000000000e+00 
2.049850390458e+01 1.000000000000e+00 
2.050017114172e+01 1.000000000000e+00 
2.050183837886e+01 1.000000000000e+00 
2.050350561600e+01 1.000000000000e+00 
2.144715300070e+01 1.000000000000e+00 
2.144865351412e+01 1.000000000000e+00 
2.145015402755e+01 1.000000000000e+00 
2.145165454097e+01 1.000000000000e+00 
2.145315505440e+01 1.000000000000e+00 
2.239746933395e+01 1.000000000000e+00 
2.239880312366e+01 1.000000000000e+00 
2.240013691338e+01 1.000000000000e+00 
2.240147070309e+01 1.000000000000e+00 
2.240280449280e+01 1.000000000000e+00 
2.334778566721e+01 1.000000000000e+00 
2.334895273321e+01 1.000000000000e+00 
2.335011979920e+01 1.000000000000e+00 
2.335128686520e+01 1.000000000000e+00 
2.335245393120e+01 1.000000000000e+00 
2.429810200046e+01 1.000000000000e+00 
2.429910234275e+01 1.000000000000e+00 
2.430010268503e+01 1.000000000000e+00 
2.430110302732e+01 1.000000000000e+00 
2.430210336960e+01 1.000000000000e+00 
2.524841833372e+01 1.000000000000e+00 
2.524925195229e+01 1.000000000000e+00 
2.525008557086e+01 1.000000000000e+00 
2.525091918943e+01 1.000000000000e+00 
2.525175280800e+01 1.000000000000e+00 
2.619873466698e+01 1.000000000000e+00 
2.619940156183e+01 1.000000000000e+00 
2.620006845669e+01 1.000000000000e+00 
2.620073535154e+01 1.000000000000e+00 
2.620140224640e+01 1.000000000000e+00 
2.714905100023e+01 1.000000000000e+00 
2.714955117137e+01 1.000000000000e+00 
2.715005134252e+01 1.000000000000e+00 
2.715055151366e+01 1.000000000000e+00 
2.715105168480e+01 1.000000000000e+00 
2.809936733349e+01 1.000000000000e+00 
2.809970078092e+01 1.000000000000e+00 
2.810003422834e+01 1.000000000000e+00 
2.810036767577e+01 1.000000000000e+00 
2.810070112320e+01 1.000000000000e+00 
2.904968366674e+01 1.000000000000e+00 
2.904985039046e+01 1.000000000000e+00 
2.905001711417e+01 1.000000000000e+00 
2.905018383789e+01 1.000000000000e+00 
2.905035056160e+01 1.000000000000e+00 
3.000000000000e+01 1.000000000000e+00 
3.000000000000e+01 1.000000000000e+00 
3.000000000000e+01 1.000000000000e+00 
3.000000000000e+01 1.000000000000e+00 
3.000000000000e+01 1.000000000000e+00 
3.002500000000e+01 9.876207709446e-01 
3.002500000000e+01 9.876207709446e-01 
3.002500000000e+01 9.876207709446e-01 
3.002500000000e+01 9.876207709446e-01 
3.002500000000e+01 9.876207709446e-01 
3.005000000000e+01 9.697756439369e-01 
3.005000000000e+01 9.697756439369e-01 
3.005000000000e+01 9.697756439369e-01 
3.005000000000e+01 9.697756439369e-01 
3.005000000000e+01 9.697756439369e-01 
3.007500000000e+01 9.507134089444e-01 
3.007500000000e+01 9.507134089444e-01 
3.007500000000e+01 9.507134089444e-01 
3.007500000000e+01 9.507134089444e-01 
3.007500000000e+01 9.507134089444e-01 
3.010000000000e+01 9.315621650298e-01 
3.010000000000e+01 9.315621650298e-01 
3.010000000000e+01 9.315621650298e-01 
3.010000000000e+01 9.315621650298e-01 
3.010000000000e+01 9.315621650298e-01 
3.012500000000e+01 9.128758324042e-01 
3.012500000000e+01 9.128758324042e-01 
3.012500000000e+01 9.128758324042e-01 
3.012500000000e+01 9.128758324042e-01 
3.012500000000e+01 9.128758324042e-01 
3.015000000000e+01 8.949248043380e-01 
3.015000000000e+01 8.949248043380e-01 
3.015000000000e+01 8.949248043380e-01 
3.015000000000e+01 8.949248043380e-01 
3.015000000000e+01 8.949248043380e-01 
3.017500000000e+01 8.778290027968e-01 
3.017500000000e+01 8.778290027968e-01 
3.017500000000e+01 8.778290027968e-01 
3.017500000000e+01 8.778290027968e-01 
3.017500000000e+01 8.778290027968e-01 
3.020000000000e+01 8.616255702900e-01 
3.020000000000e+01 8.616255702900e-01 
3.020000000000e+01 8.616255702900e-01 
3.020000000000e+01 8.616255702900e-01 
3.020000000000e+01 8.616255702900e-01 
3.022500000000e+01 8.463059583920e-01 
3.022500000000e+01 8.463059583920e-01 
3.022500000000e+01 8.463059583920e-01 
3.022500000000e+01 8.463059583920e-01 
3.022500000000e+01 8.463059583920e-01 
3.025000000000e+01 8.318370344398e-01 
3.025000000000e+01 8.318370344398e-01 
3.025000000000e+01 8.318370344398e-01 
3.025000000000e+01 8.318370344398e-01 
3.025000000000e+01 8.318370344398e-01 
3.027500000000e+01 8.181733156316e-01 
3.027500000000e+01 8.181733156316e-01 
3.027500000000e+01 8.181733156316e-01 
3.027500000000e+01 8.181733156316e-01 
3.027500000000e+01 8.181733156316e-01 
3.030000000000e+01 8.052640970350e-01 
3.030000000000e+01 8.052640970350e-01 
3.030000000000e+01 8.052640970350e-01 
3.030000000000e+01 8.052640970350e-01 
3.030000000000e+01 8.052640970350e-01 
3.032500000000e+01 7.930575753856e-01 
3.032500000000e+01 7.930575753856e-01 
3.032500000000e+01 7.930575753856e-01 
3.032500000000e+01 7.930575753856e-01 
3.032500000000e+01 7.930575753856e-01 
3.035000000000e+01 7.815031815402e-01 
3.035000000000e+01 7.815031815402e-01 
3.035000000000e+01 7.815031815402e-01 
3.035000000000e+01 7.815031815402e-01 
3.035000000000e+01 7.815031815402e-01 
3.037500000000e+01 7.705528376764e-01 
3.037500000000e+01 7.705528376764e-01 
3.037500000000e+01 7.705528376764e-01 
3.037500000000e+01 7.705528376764e-01 
3.037500000000e+01 7.705528376764e-01 
3.040000000000e+01 7.601615689674e-01 
3.040000000000e+01 7.601615689674e-01 
3.040000000000e+01 7.601615689674e-01 
3.040000000000e+01 7.601615689674e-01 
3.040000000000e+01 7.601615689674e-01 
3.042500000000e+01 7.502877306002e-01 
3.042500000000e+01 7.502877306002e-01 
3.042500000000e+01 7.502877306002e-01 
3.042500000000e+01 7.502877306002e-01 
3.042500000000e+01 7.502877306002e-01 
3.045000000000e+01 7.408930096824e-01 
3.045000000000e+01 7.408930096824e-01 
3.045000000000e+01 7.408930096824e-01 
3.045000000000e+01 7.408930096824e-01 
3.045000000000e+01 7.408930096824e-01 
3.047500000000e+01 7.319422999608e-01 
3.047500000000e+01 7.319422999608e-01 
3.047500000000e+01 7.319422999608e-01 
3.047500000000e+01 7.319422999608e-01 
3.047500000000e+01 7.319422999608e-01 
3.050000000000e+01 7.234035093991e-01 
3.050000000000e+01 7.234035093991e-01 
3.050000000000e+01 7.234035093991e-01 
3.050000000000e+01 7.234035093991e-01 
3.050000000000e+01 7.234035093991e-01 
3.052500000000e+01 7.152473371957e-01 
3.052500000000e+01 7.152473371957e-01 
3.052500000000e+01 7.152473371957e-01 
3.052500000000e+01 7.152473371957e-01 
3.052500000000e+01 7.152473371957e-01 
3.055000000000e+01 7.074470422112e-01 
3.055000000000e+01 7.074470422112e-01 
3.055000000000e+01 7.074470422112e-01 
3.055000000000e+01 7.074470422112e-01 
3.055000000000e+01 7.074470422112e-01 
3.057500000000e+01 6.999782156504e-01 
3.057500000000e+01 6.999782156504e-01 
3.057500000000e+01 6.999782156504e-01 
3.057500000000e+01 6.999782156504e-01 
3.057500000000e+01 6.999782156504e-01 
3.060000000000e+01 6.928185651596e-01 
3.060000000000e+01 6.928185651596e-01 
3.060000000000e+01 6.928185651596e-01 
3.060000000000e+01 6.928185651596e-01 
3.060000000000e+01 6.928185651596e-01 
3.062500000000e+01 6.859477139679e-01 
3.062500000000e+01 6.859477139679e-01 
3.062500000000e+01 6.859477139679e-01 
3.062500000000e+01 6.859477139679e-01 
3.062500000000e+01 6.859477139679e-01 
3.065000000000e+01 6.793470165436e-01 
3.065000000000e+01 6.793470165436e-01 
3.065000000000e+01 6.793470165436e-01 
3.065000000000e+01 6.793470165436e-01 
3.065000000000e+01 6.793470165436e-01 
3.067500000000e+01 6.729993909360e-01 
3.067500000000e+01 6.729993909360e-01 
3.067500000000e+01 6.729993909360e-01 
3.067500000000e+01 6.729993909360e-01 
3.067500000000e+01 6.729993909360e-01 
3.070000000000e+01 6.668891672206e-01 
3.070000000000e+01 6.668891672206e-01 
3.070000000000e+01 6.668891672206e-01 
3.070000000000e+01 6.668891672206e-01 
3.070000000000e+01 6.668891672206e-01 
3.072500000000e+01 6.610019510587e-01 
3.072500000000e+01 6.610019510587e-01 
3.072500000000e+01 6.610019510587e-01 
3.072500000000e+01 6.610019510587e-01 
3.072500000000e+01 6.610019510587e-01 
3.075000000000e+01 6.553245011865e-01 
3.075000000000e+01 6.553245011865e-01 
3.075000000000e+01 6.553245011865e-01 
3.075000000000e+01 6.553245011865e-01 
3.075000000000e+01 6.553245011865e-01 
3.077500000000e+01 6.498446195878e-01 
3.077500000000e+01 6.498446195878e-01 
3.077500000000e+01 6.498446195878e-01 
3.077500000000e+01 6.498446195878e-01 
3.077500000000e+01 6.498446195878e-01 
3.080000000000e+01 6.445510531188e-01 
3.080000000000e+01 6.445510531188e-01 
3.080000000000e+01 6.445510531188e-01 
3.080000000000e+01 6.445510531188e-01 
3.080000000000e+01 6.445510531188e-01 
3.082500000000e+01 6.394334054150e-01 
3.082500000000e+01 6.394334054150e-01 
3.082500000000e+01 6.394334054150e-01 
3.082500000000e+01 6.394334054150e-01 
3.082500000000e+01 6.394334054150e-01 
3.085000000000e+01 6.344820579917e-01 
3.085000000000e+01 6.344820579917e-01 
3.085000000000e+01 6.344820579917e-01 
3.085000000000e+01 6.344820579917e-01 
3.085000000000e+01 6.344820579917e-01 
3.087500000000e+01 6.296880995462e-01 
3.087500000000e+01 6.296880995462e-01 
3.087500000000e+01 6.296880995462e-01 
3.087500000000e+01 6.296880995462e-01 
3.087500000000e+01 6.296880995462e-01 
3.090000000000e+01 6.250432625624e-01 
3.090000000000e+01 6.250432625624e-01 
3.090000000000e+01 6.250432625624e-01 
3.090000000000e+01 6.250432625624e-01 
3.090000000000e+01 6.250432625624e-01 
3.092500000000e+01 6.205398664126e-01 
3.092500000000e+01 6.205398664126e-01 
3.092500000000e+01 6.205398664126e-01 
3.092500000000e+01 6.205398664126e-01 
3.092500000000e+01 6.205398664126e-01 
3.095000000000e+01 6.161707662369e-01 
3.095000000000e+01 6.161707662369e-01 
3.095000000000e+01 6.161707662369e-01 
3.095000000000e+01 6.161707662369e-01 
3.095000000000e+01 6.161707662369e-01 
3.097500000000e+01 6.119293069613e-01 
3.097500000000e+01 6.119293069613e-01 
3.097500000000e+01 6.119293069613e-01 
3.097500000000e+01 6.119293069613e-01 
3.097500000000e+01 6.119293069613e-01 
3.100000000000e+01 6.078092818871e-01 
3.100000000000e+01 6.078092818871e-01 
3.100000000000e+01 6.078092818871e-01 
3.100000000000e+01 6.078092818871e-01 
3.100000000000e+01 6.078092818871e-01 
3.102500000000e+01 6.038048953494e-01 
3.102500000000e+01 6.038048953494e-01 
3.102500000000e+01 6.038048953494e-01 
3.102500000000e+01 6.038048953494e-01 
3.102500000000e+01 6.038048953494e-01 
3.105000000000e+01 5.999107290013e-01 
3.105000000000e+01 5.999107290013e-01 
3.105000000000e+01 5.999107290013e-01 
3.105000000000e+01 5.999107290013e-01 
3.105000000000e+01 5.999107290013e-01 
3.107500000000e+01 5.961217113309e-01 
3.107500000000e+01 5.961217113309e-01 
3.107500000000e+01 5.961217113309e-01 
3.107500000000e+01 5.961217113309e-01 
3.107500000000e+01 5.961217113309e-01 
3.110000000000e+01 5.924330900627e-01 
3.110000000000e+01 5.924330900627e-01 
3.110000000000e+01 5.924330900627e-01 
3.110000000000e+01 5.924330900627e-01 
3.110000000000e+01 5.924330900627e-01 
3.112500000000e+01 5.888404071392e-01 
3.112500000000e+01 5.888404071392e-01 
3.112500000000e+01 5.888404071392e-01 
3.112500000000e+01 5.888404071392e-01 
3.112500000000e+01 5.888404071392e-01 
3.115000000000e+01 5.853394760078e-01 
3.115000000000e+01 5.853394760078e-01 
3.115000000000e+01 5.853394760078e-01 
3.115000000000e+01 5.853394760078e-01 
3.115000000000e+01 5.853394760078e-01 
3.117500000000e+01 5.819263609758e-01 
3.117500000000e+01 5.819263609758e-01 
3.117500000000e+01 5.819263609758e-01 
3.117500000000e+01 5.819263609758e-01 
3.117500000000e+01 5.819263609758e-01 
3.120000000000e+01 5.785973584173e-01 
3.120000000000e+01 5.785973584173e-01 
3.120000000000e+01 5.785973584173e-01 
3.120000000000e+01 5.785973584173e-01 
3.120000000000e+01 5.785973584173e-01 
3.122500000000e+01 5.753489796460e-01 
3.122500000000e+01 5.753489796460e-01 
3.122500000000e+01 5.753489796460e-01 
3.122500000000e+01 5.753489796460e-01 
3.122500000000e+01 5.753489796460e-01 
3.125000000000e+01 5.721779352840e-01 
3.125000000000e+01 5.721779352840e-01 
3.125000000000e+01 5.721779352840e-01 
3.125000000000e+01 5.721779352840e-01 
3.125000000000e+01 5.721779352840e-01 
3.127500000000e+01 5.690811209785e-01 
3.127500000000e+01 5.690811209785e-01 
3.127500000000e+01 5.690811209785e-01 
3.127500000000e+01 5.690811209785e-01 
3.127500000000e+01 5.690811209785e-01 
3.130000000000e+01 5.660556043336e-01 
3.130000000000e+01 5.660556043336e-01 
3.130000000000e+01 5.660556043336e-01 
3.130000000000e+01 5.660556043336e-01 
3.130000000000e+01 5.660556043336e-01 
3.132500000000e+01 5.630986129391e-01 
3.132500000000e+01 5.630986129391e-01 
3.132500000000e+01 5.630986129391e-01 
3.132500000000e+01 5.630986129391e-01 
3.132500000000e+01 5.630986129391e-01 
3.135000000000e+01 5.602075233904e-01 
3.135000000000e+01 5.602075233904e-01 
3.135000000000e+01 5.602075233904e-01 
3.135000000000e+01 5.602075233904e-01 
3.135000000000e+01 5.602075233904e-01 
3.137500000000e+01 5.573798512060e-01 
3.137500000000e+01 5.573798512060e-01 
3.137500000000e+01 5.573798512060e-01 
3.137500000000e+01 5.573798512060e-01 
3.137500000000e+01 5.573798512060e-01 
3.140000000000e+01 5.546132415581e-01 
3.140000000000e+01 5.546132415581e-01 
3.140000000000e+01 5.546132415581e-01 
3.140000000000e+01 5.546132415581e-01 
3.140000000000e+01 5.546132415581e-01 
3.142500000000e+01 5.519054607414e-01 
3.142500000000e+01 5.519054607414e-01 
3.142500000000e+01 5.519054607414e-01 
3.142500000000e+01 5.519054607414e-01 
3.142500000000e+01 5.519054607414e-01 
3.145000000000e+01 5.492543883110e-01 
3.145000000000e+01 5.492543883110e-01 
3.145000000000e+01 5.492543883110e-01 
3.145000000000e+01 5.492543883110e-01 
3.145000000000e+01 5.492543883110e-01 
3.147500000000e+01 5.466580098318e-01 
3.147500000000e+01 5.466580098318e-01 
3.147500000000e+01 5.466580098318e-01 
3.147500000000e+01 5.466580098318e-01 
3.147500000000e+01 5.466580098318e-01 
3.150000000000e+01 5.441144101810e-01 
3.150000000000e+01 5.441144101810e-01 
3.150000000000e+01 5.441144101810e-01 
3.150000000000e+01 5.441144101810e-01 
3.150000000000e+01 5.441144101810e-01 
3.152500000000e+01 5.416217673588e-01 
3.152500000000e+01 5.416217673588e-01 
3.152500000000e+01 5.416217673588e-01 
3.152500000000e+01 5.416217673588e-01 
3.152500000000e+01 5.416217673588e-01 
3.155000000000e+01 5.391783467591e-01 
3.155000000000e+01 5.391783467591e-01 
3.155000000000e+01 5.391783467591e-01 
3.155000000000e+01 5.391783467591e-01 
3.155000000000e+01 5.391783467591e-01 
3.157500000000e+01 5.367824958643e-01 
3.157500000000e+01 5.367824958643e-01 
3.157500000000e+01 5.367824958643e-01 
3.157500000000e+01 5.367824958643e-01 
3.157500000000e+01 5.367824958643e-01 
3.160000000000e+01 5.344326393247e-01 
3.160000000000e+01 5.344326393247e-01 
3.160000000000e+01 5.344326393247e-01 
3.160000000000e+01 5.344326393247e-01 
3.160000000000e+01 5.344326393247e-01 
3.162500000000e+01 5.321272743928e-01 
3.162500000000e+01 5.321272743928e-01 
3.162500000000e+01 5.321272743928e-01 
3.162500000000e+01 5.321272743928e-01 
3.162500000000e+01 5.321272743928e-01 
3.165000000000e+01 5.298649666811e-01 
3.165000000000e+01 5.298649666811e-01 
3.165000000000e+01 5.298649666811e-01 
3.165000000000e+01 5.298649666811e-01 
3.165000000000e+01 5.298649666811e-01 
3.167500000000e+01 5.276443462180e-01 
3.167500000000e+01 5.276443462180e-01 
3.167500000000e+01 5.276443462180e-01 
3.167500000000e+01 5.276443462180e-01 
3.167500000000e+01 5.276443462180e-01 
3.170000000000e+01 5.254641037767e-01 
3.170000000000e+01 5.254641037767e-01 
3.170000000000e+01 5.254641037767e-01 
3.170000000000e+01 5.254641037767e-01 
3.170000000000e+01 5.254641037767e-01 
3.172500000000e+01 5.233229874560e-01 
3.172500000000e+01 5.233229874560e-01 
3.172500000000e+01 5.233229874560e-01 
3.172500000000e+01 5.233229874560e-01 
3.172500000000e+01 5.233229874560e-01 
3.175000000000e+01 5.212197994921e-01 
3.175000000000e+01 5.212197994921e-01 
3.175000000000e+01 5.212197994921e-01 
3.175000000000e+01 5.212197994921e-01 
3.175000000000e+01 5.212197994921e-01 
3.177500000000e+01 5.191533932842e-01 
3.177500000000e+01 5.191533932842e-01 
3.177500000000e+01 5.191533932842e-01 
3.177500000000e+01 5.191533932842e-01 
3.177500000000e+01 5.191533932842e-01 
3.180000000000e+01 5.171226706164e-01 
3.180000000000e+01 5.171226706164e-01 
3.180000000000e+01 5.171226706164e-01 
3.180000000000e+01 5.171226706164e-01 
3.180000000000e+01 5.171226706164e-01 
3.182500000000e+01 5.151265790614e-01 
3.182500000000e+01 5.151265790614e-01 
3.182500000000e+01 5.151265790614e-01 
3.182500000000e+01 5.151265790614e-01 
3.182500000000e+01 5.151265790614e-01 
3.185000000000e+01 5.131641095520e-01 
3.185000000000e+01 5.131641095520e-01 
3.185000000000e+01 5.131641095520e-01 
3.185000000000e+01 5.131641095520e-01 
3.185000000000e+01 5.131641095520e-01 
3.187500000000e+01 5.112342941078e-01 
3.187500000000e+01 5.112342941078e-01 
3.187500000000e+01 5.112342941078e-01 
3.187500000000e+01 5.112342941078e-01 
3.187500000000e+01 5.112342941078e-01 
3.190000000000e+01 5.093362037054e-01 
3.190000000000e+01 5.093362037054e-01 
3.190000000000e+01 5.093362037054e-01 
3.190000000000e+01 5.093362037054e-01 
3.190000000000e+01 5.093362037054e-01 
3.192500000000e+01 5.074689462822e-01 
3.192500000000e+01 5.074689462822e-01 
3.192500000000e+01 5.074689462822e-01 
3.192500000000e+01 5.074689462822e-01 
3.192500000000e+01 5.074689462822e-01 
3.195000000000e+01 5.056316648631e-01 
3.195000000000e+01 5.056316648631e-01 
3.195000000000e+01 5.056316648631e-01 
3.195000000000e+01 5.056316648631e-01 
3.195000000000e+01 5.056316648631e-01 
3.197500000000e+01 5.038235358020e-01 
3.197500000000e+01 5.038235358020e-01 
3.197500000000e+01 5.038235358020e-01 
3.197500000000e+01 5.038235358020e-01 
3.197500000000e+01 5.038235358020e-01 
3.200000000000e+01 5.013694524666e-01 
3.200000000000e+01 5.013720661003e-01 
3.200000000000e+01 5.013733715364e-01 
3.200000000000e+01 5.013707597434e-01 
3.200000000000e+01 5.013746760509e-01 
3.289810200048e+01 4.512809976163e-01 
3.289910234276e+01 4.512355645113e-01 
3.290010268504e+01 4.511901507888e-01 
3.290110302733e+01 4.511447564349e-01 
3.290210336961e+01 4.510993814358e-01 
3.379620400095e+01 4.184346022234e-01 
3.379820468552e+01 4.183717912515e-01 
3.380020537008e+01 4.183090231776e-01 
3.380220605465e+01 4.182462979509e-01 
3.380420673922e+01 4.181836155208e-01 
3.469430600143e+01 3.942659133507e-01 
3.469730702828e+01 3.941947807983e-01 
3.470030805513e+01 3.941237076463e-01 
3.470330908198e+01 3.940526938082e-01 
3.470631010883e+01 3.939817391982e-01 
3.559240800190e+01 3.754423143542e-01 
3.559640937104e+01 3.753670129194e-01 
3.560041074017e+01 3.752917821360e-01 
3.560441210930e+01 3.752166218884e-01 
3.560841347844e+01 3.751415320613e-01 
3.649051000238e+01 3.601818491550e-01 
3.649551171379e+01 3.601044897196e-01 
3.650051342521e+01 3.600272086621e-01 
3.650551513663e+01 3.599500058440e-01 
3.651051684805e+01 3.598728811270e-01 
 TITLE = "Profiles along polylines"
 VARIABLES = "DIST" "SATURATION1" 
 ZONE T="TIME=1.797693134862e+308"
1.490510002377e+00 1.000000000000e+00 
1.495511713794e+00 1.000000000000e+00 
1.500513425211e+00 1.000000000000e+00 
1.505515136629e+00 1.000000000000e+00 
1.510516848046e+00 1.000000000000e+00 
2.440826335630e+00 1.000000000000e+00 
2.445661323334e+00 1.000000000000e+00 
2.450496311037e+00 1.000000000000e+00 
2.455331298741e+00 1.000000000000e+00 
2.460166286444e+00 1.000000000000e+00 
3.391142668884e+00 1.000000000000e+00 
3.395810932874e+00 1.000000000000e+00 
3.400479196863e+00 1.000000000000e+00 
3.405147460853e+00 1.000000000000e+00 
3.409815724842e+00 1.000000000000e+00 
4.341459002139e+00 1.000000000000e+00 
4.345960542414e+00 1.000000000000e+00 
4.350462082690e+00 1.000000000000e+00 
4.354963622966e+00 1.000000000000e+00 
4.359465163241e+00 1.000000000000e+00 
5.291775335393e+00 1.000000000000e+00 
5.296110151955e+00 1.000000000000e+00 
5.300444968516e+00 1.000000000000e+00 
5.304779785078e+00 1.000000000000e+00 
5.309114601640e+00 1.000000000000e+00 
6.242091668646e+00 1.000000000000e+00 
6.246259761494e+00 1.000000000000e+00 
6.250427854342e+00 1.000000000000e+00 
6.254595947190e+00 1.000000000000e+00 
6.258764040037e+00 1.000000000000e+00 
7.192408001900e+00 1.000000000000e+00 
7.196409371033e+00 1.000000000000e+00 
7.200410740167e+00 1.000000000000e+00 
7.204412109301e+00 1.000000000000e+00 
7.208413478435e+00 1.000000000000e+00 
8.142724335153e+00 1.000000000000e+00 
8.146558980573e+00 1.000000000000e+00 
8.150393625993e+00 1.000000000000e+00 
8.154228271413e+00 1.000000000000e+00 
8.158062916833e+00 1.000000000000e+00 
9.093040668406e+00 1.000000000000e+00 
9.096708590112e+00 1.000000000000e+00 
9.100376511818e+00 1.000000000000e+00 
9.104044433524e+00 1.000000000000e+00 
9.107712355231e+00 1.000000000000e+00 
1.004335700166e+01 1.000000000000e+00 
1.004685819965e+01 1.000000000000e+00 
1.005035939764e+01 1.000000000000e+00 
1.005386059563e+01 1.000000000000e+00 
1.005736179363e+01 1.000000000000e+00 
1.099367333491e+01 1.000000000000e+00 
1.099700780919e+01 1.000000000000e+00 
1.100034228346e+01 1.000000000000e+00 
1.100367675774e+01 1.000000000000e+00 
1.100701123202e+01 1.000000000000e+00 
1.194398966816e+01 1.000000000000e+00 
1.194715741872e+01 1.000000000000e+00 
1.195032516929e+01 1.000000000000e+00 
1.195349291985e+01 1.000000000000e+00 
1.195666067042e+01 1.000000000000e+00 
1.289430600141e+01 1.000000000000e+00 
1.289730702826e+01 1.000000000000e+00 
1.290030805511e+01 1.000000000000e+00 
1.290330908196e+01 1.000000000000e+00 
1.290631010881e+01 1.000000000000e+00 
1.384462233466e+01 1.000000000000e+00 
1.384745663780e+01 1.000000000000e+00 
1.385029094093e+01 1.000000000000e+00 
1.385312524407e+01 1.000000000000e+00 
1.385595954721e+01 1.000000000000e+00 
1.479493866791e+01 1.000000000000e+00 
1.479760624733e+01 1.000000000000e+00 
1.480027382676e+01 1.000000000000e+00 
1.480294140618e+01 1.000000000000e+00 
1.480560898560e+01 1.000000000000e+00 
1.574525500116e+01 1.000000000000e+00 
1.574775585687e+01 1.000000000000e+00 
1.575025671258e+01 1.000000000000e+00 
1.575275756829e+01 1.000000000000e+00 
1.575525842400e+01 1.000000000000e+00 
1.669557133442e+01 1.000000000000e+00 
1.669790546641e+01 1.000000000000e+00 
1.670023959841e+01 1.000000000000e+00 
1.670257373040e+01 1.000000000000e+00 
1.670490786240e+01 1.000000000000e+00 
1.764588766767e+01 1.000000000000e+00 
1.764805507595e+01 1.000000000000e+00 
1.765022248424e+01 1.000000000000e+00 
1.765238989252e+01 1.000000000000e+00 
1.765455730080e+01 1.000000000000e+00 
1.859620400093e+01 1.000000000000e+00 
1.859820468550e+01 1.000000000000e+00 
1.860020537006e+01 1.000000000000e+00 
1.860220605463e+01 1.000000000000e+00 
1.860420673920e+01 1.000000000000e+00 
1.954652033419e+01 1.000000000000e+00 
1.954835429504e+01 1.000000000000e+00 
1.955018825589e+01 1.000000000000e+00 
1.955202221674e+01 1.000000000000e+00 
1.955385617760e+01 1.000000000000e+00 
2.049683666744e+01 1.000000000000e+00 
2.049850390458e+01 1.000000000000e+00 
2.050017114172e+01 1.000000000000e+00 
2.050183837886e+01 1.000000000000e+00 
2.050350561600e+01 1.000000000000e+00 
2.144715300070e+01 1.000000000000e+00 
2.144865351412e+01 1.000000000000e+00 
2.145015402755e+01 1.000000000000e+00 
2.145165454097e+01 1.000000000000e+00 
2.145315505440e+01 1.000000000000e+00 
2.239746933395e+01 1.000000000000e+00 
2.239880312366e+01 1.000000000000e+00 
2.240013691338e+01 1.000000000000e+00 
2.240147070309e+01 1.000000000000e+00 
2.240280449280e+01 1.000000000000e+00 
2.334778566721e+01 1.000000000000e+00 
2.334895273321e+01 1.000000000000e+00 
2.335011979920e+01 1.000000000000e+00 
2.335128686520e+01 1.000000000000e+00 
2.335245393120e+01 1.000000000000e+00 
2.429810200046e+01 1.000000000000e+00 
2.429910234275e+01 1.000000000000e+00 
2.430010268503e+01 1.000000000000e+00 
2.430110302732e+01 1.000000000000e+00 
2.430210336960e+01 1.000000000000e+00 
2.524841833372e+01 1.000000000000e+00 
2.524925195229e+01 1.000000000000e+00 
2.525008557086e+01 1.000000000000e+00 
2.525091918943e+01 1.000000000000e+00 
2.525175280800e+01 1.000000000000e+00 
2.619873466698e+01 1.000000000000e+00 
2.619940156183e+01 1.000000000000e+00 
2.620006845669e+01 1.000000000000e+00 
2.620073535154e+01 1.000000000000e+00 
2.620140224640e+01 1.000000000000e+00 
2.714905100023e+01 1.000000000000e+00 
2.714955117137e+01 1.000000000000e+00 
2.715005134252e+01 1.000000000000e+00 
2.715055151366e+01 1.000000000000e+00 
2.715105168480e+01 1.000000000000e+00 
2.809936733349e+01 1.000000000000e+00 
2.809970078092e+01 1.000000000000e+00 
2.810003422834e+01 1.000000000000e+00 
2.810036767577e+01 1.000000000000e+00 
2.810070112320e+01 1.000000000000e+00 
2.904968366674e+01 1.000000000000e+00 
2.904985039046e+01 1.000000000000e+00 
2.905001711417e+01 1.000000000000e+00 
2.905018383789e+01 1.000000000000e+00 
2.905035056160e+01 1.000000000000e+00 
3.000000000000e+01 1.000000000000e+00 
3.000000000000e+01 1.000000000000e+00 
3.000000000000e+01 1.000000000000e+00 
3.000000000000e+01 1.000000000000e+00 
3.000000000000e+01 1.000000000000e+00 
3.002500000000e+01 1.000000000000e+00 
3.002500000000e+01 1.000000000000e+00 
3.002500000000e+01 1.000000000000e+00 
3.002500000000e+01 1.000000000000e+00 
3.002500000000e+01 1.000000000000e+00 
3.005000000000e+01 1.000000000000e+00 
3.005000000000e+01 1.000000000000e+00 
3.005000000000e+01 1.000000000000e+00 
3.005000000000e+01 1.000000000000e+00 
3.005000000000e+01 1.000000000000e+00 
3.007500000000e+01 1.000000000000e+00 
3.007500000000e+01 1.000000000000e+00 
3.007500000000e+01 1.000000000000e+00 
3.007500000000e+01 1.000000000000e+00 
3.007500000000e+01 1.000000000000e+00 
3.010000000000e+01 1.000000000000e+00 
3.010000000000e+01 1.000000000000e+00 
3.010000000000e+01 1.000000000000e+00 
3.010000000000e+01 1.000000000000e+00 
3.010000000000e+01 1.000000000000e+00 
3.012500000000e+01 1.000000000000e+00 
3.012500000000e+01 1.000000000000e+00 
3.012500000000e+01 1.000000000000e+00 
3.012500000000e+01 1.000000000000e+00 
3.012500000000e+01 1.000000000000e+00 
3.015000000000e+01 1.000000000000e+00 
3.015000000000e+01 1.000000000000e+00 
3.015000000000e+01 1.000000000000e+00 