 TITLE = "Profiles along polylines"
 VARIABLES = "DIST" "SATURATION1" 
 ZONE T="TIME=0.000000000000e+00"
2.900992622069e-01 1.000000000000e+00 
2.951009736243e-01 1.000000000000e+00 
3.001026850416e-01 1.000000000000e+00 
3.051043964590e-01 1.000000000000e+00 
3.101061078763e-01 1.000000000000e+00 
1.280429286800e+00 1.000000000000e+00 
1.285264274503e+00 1.000000000000e+00 
1.290099262207e+00 1.000000000000e+00 
1.294934249910e+00 1.000000000000e+00 
1.299769237614e+00 1.000000000000e+00 
2.270759311392e+00 1.000000000000e+00 
2.275427575382e+00 1.000000000000e+00 
2.280095839371e+00 1.000000000000e+00 
2.284764103361e+00 1.000000000000e+00 
2.289432367350e+00 1.000000000000e+00 
3.261089335986e+00 1.000000000000e+00 
3.265590876261e+00 1.000000000000e+00 
3.270092416537e+00 1.000000000000e+00 
3.274593956813e+00 1.000000000000e+00 
3.279095497088e+00 1.000000000000e+00 
4.251419360579e+00 1.000000000000e+00 
4.255754177141e+00 1.000000000000e+00 
4.260088993702e+00 1.000000000000e+00 
4.264423810264e+00 1.000000000000e+00 
4.268758626826e+00 1.000000000000e+00 
5.241749385171e+00 1.000000000000e+00 
5.245917478019e+00 1.000000000000e+00 
5.250085570867e+00 1.000000000000e+00 
5.254253663715e+00 1.000000000000e+00 
5.258421756562e+00 1.000000000000e+00 
6.232079409764e+00 1.000000000000e+00 
6.236080778897e+00 1.000000000000e+00 
6.240082148031e+00 1.000000000000e+00 
6.244083517165e+00 1.000000000000e+00 
6.248084886299e+00 1.000000000000e+00 
7.222409434356e+00 1.000000000000e+00 
7.226244079776e+00 1.000000000000e+00 
7.230078725196e+00 1.000000000000e+00 
7.233913370616e+00 1.000000000000e+00 
7.237748016036e+00 1.000000000000e+00 
8.212739458948e+00 1.000000000000e+00 
8.216407380654e+00 1.000000000000e+00 
8.220075302360e+00 1.000000000000e+00 
8.223743224066e+00 1.000000000000e+00 
8.227411145772e+00 1.000000000000e+00 
9.203069483538e+00 1.000000000000e+00 
9.206570681530e+00 1.000000000000e+00 
9.210071879522e+00 1.000000000000e+00 
9.213573077514e+00 1.000000000000e+00 
9.217074275506e+00 1.000000000000e+00 
1.019339950813e+01 1.000000000000e+00 
1.019673398241e+01 1.000000000000e+00 
1.020006845668e+01 1.000000000000e+00 
1.020340293096e+01 1.000000000000e+00 
1.020673740524e+01 1.000000000000e+00 
1.118372953272e+01 1.000000000000e+00 
1.118689728328e+01 1.000000000000e+00 
1.119006503384e+01 1.000000000000e+00 
1.119323278441e+01 1.000000000000e+00 
1.119640053497e+01 1.000000000000e+00 
1.217405955731e+01 1.000000000000e+00 
1.217706058416e+01 1.000000000000e+00 
1.218006161101e+01 1.000000000000e+00 
1.218306263786e+01 1.000000000000e+00 
1.218606366471e+01 1.000000000000e+00 
1.316438958189e+01 1.000000000000e+00 
1.316722388503e+01 1.000000000000e+00 
1.317005818817e+01 1.000000000000e+00 
1.317289249130e+01 1.000000000000e+00 
1.317572679444e+01 1.000000000000e+00 
1.415471960648e+01 1.000000000000e+00 
1.415738718591e+01 1.000000000000e+00 
1.416005476533e+01 1.000000000000e+00 
1.416272234475e+01 1.000000000000e+00 
1.416538992417e+01 1.000000000000e+00 
1.514504963107e+01 1.000000000000e+00 
1.514755048678e+01 1.000000000000e+00 
1.515005134249e+01 1.000000000000e+00 
1.515255219820e+01 1.000000000000e+00 
1.515505305391e+01 1.000000000000e+00 
1.613537965567e+01 1.000000000000e+00 
1.613771378766e+01 1.000000000000e+00 
1.614004791966e+01 1.000000000000e+00 
1.614238205165e+01 1.000000000000e+00 
1.614471618365e+01 1.000000000000e+00 
1.712570968026e+01 1.000000000000e+00 
1.712787708854e+01 1.000000000000e+00 
1.713004449683e+01 1.000000000000e+00 
1.713221190511e+01 1.000000000000e+00 
1.713437931339e+01 1.000000000000e+00 
1.811603970486e+01 1.000000000000e+00 
1.811804038943e+01 1.000000000000e+00 
1.812004107399e+01 1.000000000000e+00 
1.812204175856e+01 1.000000000000e+00 
1.812404244313e+01 1.000000000000e+00 
1.910636972945e+01 1.000000000000e+00 
1.910820369031e+01 1.000000000000e+00 
1.911003765116e+01 1.000000000000e+00 
1.911187161201e+01 1.000000000000e+00 
1.911370557287e+01 1.000000000000e+00 
2.009669975405e+01 1.000000000000e+00 
2.009836699119e+01 1.000000000000e+00 
2.010003422833e+01 1.000000000000e+00 
2.010170146547e+01 1.000000000000e+00 
2.010336870261e+01 1.000000000000e+00 
2.108702977864e+01 1.000000000000e+00 
2.108853029207e+01 1.000000000000e+00 
2.109003080549e+01 1.000000000000e+00 
2.109153131892e+01 1.000000000000e+00 
2.109303183234e+01 1.000000000000e+00 
2.207735980324e+01 1.000000000000e+00 
2.207869359295e+01 1.000000000000e+00 
2.208002738266e+01 1.000000000000e+00 
2.208136117237e+01 1.000000000000e+00 
2.208269496208e+01 1.000000000000e+00 
2.306768982783e+01 1.000000000000e+00 
2.306885689383e+01 1.000000000000e+00 
2.307002395983e+01 1.000000000000e+00 
2.307119102583e+01 1.000000000000e+00 
2.307235809182e+01 1.000000000000e+00 
2.405801985243e+01 1.000000000000e+00 
2.405902019471e+01 1.000000000000e+00 
2.406002053700e+01 1.000000000000e+00 
2.406102087928e+01 1.000000000000e+00 
2.406202122156e+01 1.000000000000e+00 
2.504834987702e+01 1.000000000000e+00 
2.504918349559e+01 1.000000000000e+00 
2.505001711416e+01 1.000000000000e+00 
2.505085073273e+01 1.000000000000e+00 
2.505168435130e+01 1.000000000000e+00 
2.603867990162e+01 1.000000000000e+00 
2.603934679648e+01 1.000000000000e+00 
2.604001369133e+01 1.000000000000e+00 
2.604068058619e+01 1.000000000000e+00 
2.604134748104e+01 1.000000000000e+00 
2.702900992621e+01 1.000000000000e+00 
2.702951009736e+01 1.000000000000e+00 
2.703001026850e+01 1.000000000000e+00 
2.703051043964e+01 1.000000000000e+00 
2.703101061078e+01 1.000000000000e+00 
2.801933995081e+01 1.000000000000e+00 
2.801967339824e+01 1.000000000000e+00 
2.802000684567e+01 1.000000000000e+00 
2.802034029309e+01 1.000000000000e+00 
2.802067374052e+01 1.000000000000e+00 
2.900966997540e+01 1.000000000000e+00 
2.900983669912e+01 1.000000000000e+00 
2.901000342283e+01 1.000000000000e+00 
2.901017014655e+01 1.000000000000e+00 
2.901033687026e+01 1.000000000000e+00 
3.000000000000e+01 1.000000000000e+00 
3.000000000000e+01 1.000000000000e+00 
3.000000000000e+01 1.000000000000e+00 
3.000000000000e+01 1.000000000000e+00 
3.000000000000e+01 1.000000000000e+00 
3.002500000000e+01 9.876207709446e-01 
3.002500000000e+01 9.876207709446e-01 
3.002500000000e+01 9.876207709446e-01 
3.002500000000e+01 9.876207709446e-01 
3.002500000000e+01 9.876207709446e-01 
3.005000000000e+01 9.697756439369e-01 
3.005000000000e+01 9.697756439369e-01 
3.005000000000e+01 9.697756439369e-01 
3.005000000000e+01 9.697756439369e-01 
3.005000000000e+01 9.697756439369e-01 
3.007500000000e+01 9.507134089444e-01 
3.007500000000e+01 9.507134089444e-01 
3.007500000000e+01 9.507134089444e-01 
3.007500000000e+01 9.507134089444e-01 
3.007500000000e+01 9.507134089444e-01 
3.010000000000e+01 9.315621650298e-01 
3.010000000000e+01 9.315621650298e-01 
3.010000000000e+01 9.315621650298e-01 
3.010000000000e+01 9.315621650298e-01 
3.010000000000e+01 9.315621650298e-01 
3.012500000000e+01 9.128758324042e-01 
3.012500000000e+01 9.128758324042e-01 
3.012500000000e+01 9.128758324042e-01 
3.012500000000e+01 9.128758324042e-01 
3.012500000000e+01 9.128758324042e-01 
3.015000000000e+01 8.949248043380e-01 
3.015000000000e+01 8.949248043380e-01 
3.015000000000e+01 8.949248043380e-01 
3.015000000000e+01 8.949248043380e-01 
3.015000000000e+01 8.949248043380e-01 
3.017500000000e+01 8.778290027968e-01 
3.017500000000e+01 8.778290027968e-01 
3.017500000000e+01 8.778290027968e-01 
3.017500000000e+01 8.778290027968e-01 
3.017500000000e+01 8.778290027968e-01 
3.020000000000e+01 8.616255702900e-01 
3.020000000000e+01 8.616255702900e-01 
3.020000000000e+01 8.616255702900e-01 
3.020000000000e+01 8.616255702900e-01 
3.020000000000e+01 8.616255702900e-01 
3.022500000000e+01 8.463059583920e-01 
3.022500000000e+01 8.463059583920e-01 
3.022500000000e+01 8.463059583920e-01 
3.022500000000e+01 8.463059583920e-01 
3.022500000000e+01 8.463059583920e-01 
3.025000000000e+01 8.318370344398e-01 
3.025000000000e+01 8.318370344398e-01 
3.025000000000e+01 8.318370344398e-01 
3.025000000000e+01 8.318370344398e-01 
3.025000000000e+01 8.318370344398e-01 
3.027500000000e+01 8.181733156316e-01 
3.027500000000e+01 8.181733156316e-01 
3.027500000000e+01 8.181733156316e-01 
3.027500000000e+01 8.181733156316e-01 
3.027500000000e+01 8.181733156316e-01 
3.030000000000e+01 8.052640970350e-01 
3.030000000000e+01 8.052640970350e-01 
3.030000000000e+01 8.052640970350e-01 
3.030000000000e+01 8.052640970350e-01 
3.030000000000e+01 8.052640970350e-01 
3.032500000000e+01 7.930575753856e-01 
3.032500000000e+01 7.930575753856e-01 
3.032500000000e+01 7.930575753856e-01 
3.032500000000e+01 7.930575753856e-01 
3.032500000000e+01 7.930575753856e-01 
3.035000000000e+01 7.815031815402e-01 
3.035000000000e+01 7.815031815402e-01 
3.035000000000e+01 7.815031815402e-01 
3.035000000000e+01 7.815031815402e-01 
3.035000000000e+01 7.815031815402e-01 
3.037500000000e+01 7.705528376764e-01 
3.037500000000e+01 7.705528376764e-01 
3.037500000000e+01 7.705528376764e-01 
3.037500000000e+01 7.705528376764e-01 
3.037500000000e+01 7.705528376764e-01 
3.040000000000e+01 7.601615689674e-01 
3.040000000000e+01 7.601615689674e-01 
3.040000000000e+01 7.601615689674e-01 
3.040000000000e+01 7.601615689674e-01 
3.040000000000e+01 7.601615689674e-01 
3.042500000000e+01 7.502877306002e-01 
3.042500000000e+01 7.502877306002e-01 
3.042500000000e+01 7.502877306002e-01 
3.042500000000e+01 7.502877306002e-01 
3.042500000000e+01 7.502877306002e-01 
3.045000000000e+01 7.408930096824e-01 
3.045000000000e+01 7.408930096824e-01 
3.045000000000e+01 7.408930096824e-01 
3.045000000000e+01 7.408930096824e-01 
3.045000000000e+01 7.408930096824e-01 
3.047500000000e+01 7.319422999608e-01 
3.047500000000e+01 7.319422999608e-01 
3.047500000000e+01 7.319422999608e-01 
3.047500000000e+01 7.319422999608e-01 
3.047500000000e+01 7.319422999608e-01 
3.050000000000e+01 7.234035093991e-01 
3.050000000000e+01 7.234035093991e-01 
3.050000000000e+01 7.234035093991e-01 
3.050000000000e+01 7.234035093991e-01 
3.050000000000e+01 7.234035093991e-01 
3.052500000000e+01 7.152473371957e-01 
3.052500000000e+01 7.152473371957e-01 
3.052500000000e+01 7.152473371957e-01 
3.052500000000e+01 7.152473371957e-01 
3.052500000000e+01 7.152473371957e-01 
3.055000000000e+01 7.074470422112e-01 
3.055000000000e+01 7.074470422112e-01 
3.055000000000e+01 7.074470422112e-01 
3.055000000000e+01 7.074470422112e-01 
3.055000000000e+01 7.074470422112e-01 
3.057500000000e+01 6.999782156504e-01 
3.057500000000e+01 6.999782156504e-01 
3.057500000000e+01 6.999782156504e-01 
3.057500000000e+01 6.999782156504e-01 
3.057500000000e+01 6.999782156504e-01 
3.060000000000e+01 6.928185651596e-01 
3.060000000000e+01 6.928185651596e-01 
3.060000000000e+01 6.928185651596e-01 
3.060000000000e+01 6.928185651596e-01 
3.060000000000e+01 6.928185651596e-01 
3.062500000000e+01 6.859477139679e-01 
3.062500000000e+01 6.859477139679e-01 
3.062500000000e+01 6.859477139679e-01 
3.062500000000e+01 6.859477139679e-01 
3.062500000000e+01 6.859477139679e-01 
3.065000000000e+01 6.793470165436e-01 
3.065000000000e+01 6.793470165436e-01 
3.065000000000e+01 6.793470165436e-01 
3.065000000000e+01 6.793470165436e-01 
3.065000000000e+01 6.793470165436e-01 
3.067500000000e+01 6.729993909360e-01 
3.067500000000e+01 6.729993909360e-01 
3.067500000000e+01 6.729993909360e-01 
3.067500000000e+01 6.729993909360e-01 
3.067500000000e+01 6.729993909360e-01 
3.070000000000e+01 6.668891672206e-01 
3.070000000000e+01 6.668891672206e-01 
3.070000000000e+01 6.668891672206e-01 
3.070000000000e+01 6.668891672206e-01 
3.070000000000e+01 6.668891672206e-01 
3.072500000000e+01 6.610019510587e-01 
3.072500000000e+01 6.610019510587e-01 
3.072500000000e+01 6.610019510587e-01 
3.072500000000e+01 6.610019510587e-01 
3.072500000000e+01 6.610019510587e-01 
3.075000000000e+01 6.553245011865e-01 
3.075000000000e+01 6.553245011865e-01 
3.075000000000e+01 6.553245011865e-01 
3.075000000000e+01 6.553245011865e-01 
3.075000000000e+01 6.553245011865e-01 
3.077500000000e+01 6.498446195878e-01 
3.077500000000e+01 6.498446195878e-01 
3.077500000000e+01 6.498446195878e-01 
3.077500000000e+01 6.498446195878e-01 
3.077500000000e+01 6.498446195878e-01 
3.080000000000e+01 6.445510531188e-01 
3.080000000000e+01 6.445510531188e-01 
3.080000000000e+01 6.445510531188e-01 
3.080000000000e+01 6.445510531188e-01 
3.080000000000e+01 6.445510531188e-01 
3.082500000000e+01 6.394334054150e-01 
3.082500000000e+01 6.394334054150e-01 
3.082500000000e+01 6.394334054150e-01 
3.082500000000e+01 6.394334054150e-01 
3.082500000000e+01 6.394334054150e-01 
3.085000000000e+01 6.344820579917e-01 
3.085000000000e+01 6.344820579917e-01 
3.085000000000e+01 6.344820579917e-01 
3.085000000000e+01 6.344820579917e-01 
3.085000000000e+01 6.344820579917e-01 
3.087500000000e+01 6.296880995462e-01 
3.087500000000e+01 6.296880995462e-01 
3.087500000000e+01 6.296880995462e-01 
3.087500000000e+01 6.296880995462e-01 
3.087500000000e+01 6.296880995462e-01 
3.090000000000e+01 6.250432625624e-01 
3.090000000000e+01 6.250432625624e-01 
3.090000000000e+01 6.250432625624e-01 
3.090000000000e+01 6.250432625624e-01 
3.090000000000e+01 6.250432625624e-01 
3.092500000000e+01 6.205398664126e-01 
3.092500000000e+01 6.205398664126e-01 
3.092500000000e+01 6.205398664126e-01 
3.092500000000e+01 6.205398664126e-01 
3.092500000000e+01 6.205398664126e-01 
3.095000000000e+01 6.161707662369e-01 
3.095000000000e+01 6.161707662369e-01 
3.095000000000e+01 6.161707662369e-01 
3.095000000000e+01 6.161707662369e-01 
3.095000000000e+01 6.161707662369e-01 
3.097500000000e+01 6.119293069613e-01 
3.097500000000e+01 6.119293069613e-01 
3.097500000000e+01 6.119293069613e-01 
3.097500000000e+01 6.119293069613e-01 
3.097500000000e+01 6.119293069613e-01 
3.100000000000e+01 6.078092818871e-01 
3.100000000000e+01 6.078092818871e-01 
3.100000000000e+01 6.078092818871e-01 
3.100000000000e+01 6.078092818871e-01 
3.100000000000e+01 6.078092818871e-01 
3.102500000000e+01 6.038048953494e-01 
3.102500000000e+01 6.038048953494e-01 
3.102500000000e+01 6.038048953494e-01 
3.102500000000e+01 6.038048953494e-01 
3.102500000000e+01 6.038048953494e-01 
3.105000000000e+01 5.999107290013e-01 
3.105000000000e+01 5.999107290013e-01 
3.105000000000e+01 5.999107290013e-01 
3.105000000000e+01 5.999107290013e-01 
3.105000000000e+01 5.999107290013e-01 
3.107500000000e+01 5.961217113309e-01 
3.107500000000e+01 5.961217113309e-01 
3.107500000000e+01 5.961217113309e-01 
3.107500000000e+01 5.961217113309e-01 
3.107500000000e+01 5.961217113309e-01 
3.110000000000e+01 5.924330900627e-01 
3.110000000000e+01 5.924330900627e-01 
3.110000000000e+01 5.924330900627e-01 
3.110000000000e+01 5.924330900627e-01 
3.110000000000e+01 5.924330900627e-01 
3.112500000000e+01 5.888404071392e-01 
3.112500000000e+01 5.888404071392e-01 
3.112500000000e+01 5.888404071392e-01 
3.112500000000e+01 5.888404071392e-01 
3.112500000000e+01 5.888404071392e-01 
3.115000000000e+01 5.853394760078e-01 
3.115000000000e+01 5.853394760078e-01 
3.115000000000e+01 5.853394760078e-01 
3.115000000000e+01 5.853394760078e-01 
3.115000000000e+01 5.853394760078e-01 
3.117500000000e+01 5.819263609758e-01 
3.117500000000e+01 5.819263609758e-01 
3.117500000000e+01 5.819263609758e-01 
3.117500000000e+01 5.819263609758e-01 
3.117500000000e+01 5.819263609758e-01 
3.120000000000e+01 5.785973584173e-01 
3.120000000000e+01 5.785973584173e-01 
3.120000000000e+01 5.785973584173e-01 
3.120000000000e+01 5.785973584173e-01 
3.120000000000e+01 5.785973584173e-01 
3.122500000000e+01 5.753489796460e-01 
3.122500000000e+01 5.753489796460e-01 
3.122500000000e+01 5.753489796460e-01 
3.122500000000e+01 5.753489796460e-01 
3.122500000000e+01 5.753489796460e-01 
3.125000000000e+01 5.721779352840e-01 
3.125000000000e+01 5.721779352840e-01 
3.125000000000e+01 5.721779352840e-01 
3.125000000000e+01 5.721779352840e-01 
3.125000000000e+01 5.721779352840e-01 
3.127500000000e+01 5.690811209785e-01 
3.127500000000e+01 5.690811209785e-01 
3.127500000000e+01 5.690811209785e-01 
3.127500000000e+01 5.690811209785e-01 
3.127500000000e+01 5.690811209785e-01 
3.130000000000e+01 5.660556043336e-01 
3.130000000000e+01 5.660556043336e-01 
3.130000000000e+01 5.660556043336e-01 
3.130000000000e+01 5.660556043336e-01 
3.130000000000e+01 5.660556043336e-01 
3.132500000000e+01 5.630986129391e-01 
3.132500000000e+01 5.630986129391e-01 
3.132500000000e+01 5.630986129391e-01 
3.132500000000e+01 5.630986129391e-01 
3.132500000000e+01 5.630986129391e-01 
3.135000000000e+01 5.602075233904e-01 
3.135000000000e+01 5.602075233904e-01 
3.135000000000e+01 5.602075233904e-01 
3.135000000000e+01 5.602075233904e-01 
3.135000000000e+01 5.602075233904e-01 
3.137500000000e+01 5.573798512060e-01 
3.137500000000e+01 5.573798512060e-01 
3.137500000000e+01 5.573798512060e-01 
3.137500000000e+01 5.573798512060e-01 
3.137500000000e+01 5.573798512060e-01 
3.140000000000e+01 5.546132415581e-01 
3.140000000000e+01 5.546132415581e-01 
3.140000000000e+01 5.546132415581e-01 
3.140000000000e+01 5.546132415581e-01 
3.140000000000e+01 5.546132415581e-01 
3.142500000000e+01 5.519054607414e-01 
3.142500000000e+01 5.519054607414e-01 
3.142500000000e+01 5.519054607414e-01 
3.142500000000e+01 5.519054607414e-01 
3.142500000000e+01 5.519054607414e-01 
3.145000000000e+01 5.492543883110e-01 
3.145000000000e+01 5.492543883110e-01 
3.145000000000e+01 5.492543883110e-01 
3.145000000000e+01 5.492543883110e-01 
3.145000000000e+01 5.492543883110e-01 
3.147500000000e+01 5.466580098318e-01 
3.147500000000e+01 5.466580098318e-01 
3.147500000000e+01 5.466580098318e-01 
3.147500000000e+01 5.466580098318e-01 
3.147500000000e+01 5.466580098318e-01 
3.150000000000e+01 5.441144101810e-01 
3.150000000000e+01 5.441144101810e-01 
3.150000000000e+01 5.441144101810e-01 
3.150000000000e+01 5.441144101810e-01 
3.150000000000e+01 5.441144101810e-01 
3.152500000000e+01 5.416217673588e-01 
3.152500000000e+01 5.416217673588e-01 
3.152500000000e+01 5.416217673588e-01 
3.152500000000e+01 5.416217673588e-01 
3.152500000000e+01 5.416217673588e-01 
3.155000000000e+01 5.391783467591e-01 
3.155000000000e+01 5.391783467591e-01 
3.155000000000e+01 5.391783467591e-01 
3.155000000000e+01 5.391783467591e-01 
3.155000000000e+01 5.391783467591e-01 
3.157500000000e+01 5.367824958643e-01 
3.157500000000e+01 5.367824958643e-01 
3.157500000000e+01 5.367824958643e-01 
3.157500000000e+01 5.367824958643e-01 
3.157500000000e+01 5.367824958643e-01 
3.160000000000e+01 5.344326393247e-01 
3.160000000000e+01 5.344326393247e-01 
3.160000000000e+01 5.344326393247e-01 
3.160000000000e+01 5.344326393247e-01 
3.160000000000e+01 5.344326393247e-01 
3.162500000000e+01 5.321272743928e-01 
3.162500000000e+01 5.321272743928e-01 
3.162500000000e+01 5.321272743928e-01 
3.162500000000e+01 5.321272743928e-01 
3.162500000000e+01 5.321272743928e-01 
3.165000000000e+01 5.298649666811e-01 
3.165000000000e+01 5.298649666811e-01 
3.165000000000e+01 5.298649666811e-01 
3.165000000000e+01 5.298649666811e-01 
3.165000000000e+01 5.298649666811e-01 
3.167500000000e+01 5.276443462180e-01 
3.167500000000e+01 5.276443462180e-01 
3.167500000000e+01 5.276443462180e-01 
3.167500000000e+01 5.276443462180e-01 
3.167500000000e+01 5.276443462180e-01 
3.170000000000e+01 5.254641037767e-01 
3.170000000000e+01 5.254641037767e-01 
3.170000000000e+01 5.254641037767e-01 
3.170000000000e+01 5.254641037767e-01 
3.170000000000e+01 5.254641037767e-01 
3.172500000000e+01 5.233229874560e-01 
3.172500000000e+01 5.233229874560e-01 
3.172500000000e+01 5.233229874560e-01 
3.172500000000e+01 5.233229874560e-01 
3.172500000000e+01 5.233229874560e-01 
3.175000000000e+01 5.212197994921e-01 
3.175000000000e+01 5.212197994921e-01 
3.175000000000e+01 5.212197994921e-01 
3.175000000000e+01 5.212197994921e-01 
3.175000000000e+01 5.212197994921e-01 
3.177500000000e+01 5.191533932842e-01 
3.177500000000e+01 5.191533932842e-01 
3.177500000000e+01 5.191533932842e-01 
3.177500000000e+01 5.191533932842e-01 
3.177500000000e+01 5.191533932842e-01 
3.180000000000e+01 5.171226706164e-01 
3.180000000000e+01 5.171226706164e-01 
3.180000000000e+01 5.171226706164e-01 
3.180000000000e+01 5.171226706164e-01 
3.180000000000e+01 5.171226706164e-01 
3.182500000000e+01 5.151265790614e-01 
3.182500000000e+01 5.151265790614e-01 
3.182500000000e+01 5.151265790614e-01 
3.182500000000e+01 5.151265790614e-01 
3.182500000000e+01 5.151265790614e-01 
3.185000000000e+01 5.131641095520e-01 
3.185000000000e+01 5.131641095520e-01 
3.185000000000e+01 5.131641095520e-01 
3.185000000000e+01 5.131641095520e-01 
3.185000000000e+01 5.131641095520e-01 
3.187500000000e+01 5.112342941078e-01 
3.187500000000e+01 5.112342941078e-01 
3.187500000000e+01 5.112342941078e-01 
3.187500000000e+01 5.112342941078e-01 
3.187500000000e+01 5.112342941078e-01 
3.190000000000e+01 5.093362037054e-01 
3.190000000000e+01 5.093362037054e-01 
3.190000000000e+01 5.093362037054e-01 
3.190000000000e+01 5.093362037054e-01 
3.190000000000e+01 5.093362037054e-01 
3.192500000000e+01 5.074689462822e-01 
3.192500000000e+01 5.074689462822e-01 
3.192500000000e+01 5.074689462822e-01 
3.192500000000e+01 5.074689462822e-01 
3.192500000000e+01 5.074689462822e-01 
3.195000000000e+01 5.056316648631e-01 
3.195000000000e+01 5.056316648631e-01 
3.195000000000e+01 5.056316648631e-01 
3.195000000000e+01 5.056316648631e-01 
3.195000000000e+01 5.056316648631e-01 
3.197500000000e+01 5.038235358020e-01 
3.197500000000e+01 5.038235358020e-01 
3.197500000000e+01 5.038235358020e-01 
3.197500000000e+01 5.038235358020e-01 
3.197500000000e+01 5.038235358020e-01 
3.200000000000e+01 5.016548284037e-01 
3.200000000000e+01 5.016569490501e-01 
3.200000000000e+01 5.016580076567e-01 
3.200000000000e+01 5.016558892988e-01 
3.200000000000e+01 5.016590651173e-01 
3.265801985244e+01 4.627801158204e-01 
3.265902019472e+01 4.627295927604e-01 
3.266002053701e+01 4.626790928701e-01 
3.266102087929e+01 4.626286161317e-01 
3.266202122158e+01 4.625781625275e-01 
3.331603970488e+01 4.348814375527e-01 
3.331804038945e+01 4.348066389545e-01 
3.332004107402e+01 4.347318983637e-01 
3.332204175858e+01 4.346572157026e-01 
3.332404244315e+01 4.345825908940e-01 
3.397405955732e+01 4.132859367433e-01 
3.397706058417e+01 4.131975567787e-01 
3.398006161103e+01 4.131092634576e-01 
3.398306263788e+01 4.130210566323e-01 
3.398606366473e+01 4.129329361557e-01 
3.463207940977e+01 3.958721690537e-01 
3.463608077890e+01 3.957758021385e-01 
3.464008214803e+01 3.956795438157e-01 
3.464408351717e+01 3.955833938724e-01 
3.464808488630e+01 3.954873520959e-01 
3.529009926221e+01 3.813967757504e-01 
3.529510097362e+01 3.812955858869e-01 
3.530010268504e+01 3.811945212237e-01 
3.530510439646e+01 3.810935814907e-01 
3.531010610788e+01 3.809927664190e-01 
 TITLE = "Profiles along polylines"
 VARIABLES = "DIST" "SATURATION1" 
 ZONE T="TIME=1.797693134862e+308"
2.900992622069e-01 1.000000000000e+00 
2.951009736243e-01 1.000000000000e+00 
3.001026850416e-01 1.000000000000e+00 
3.051043964590e-01 1.000000000000e+00 
3.101061078763e-01 1.000000000000e+00 
1.280429286800e+00 1.000000000000e+00 
1.285264274503e+00 1.000000000000e+00 
1.290099262207e+00 1.000000000000e+00 
1.294934249910e+00 1.000000000000e+00 
1.299769237614e+00 1.000000000000e+00 
2.270759311392e+00 1.000000000000e+00 
2.275427575382e+00 1.000000000000e+00 
2.280095839371e+00 1.000000000000e+00 
2.284764103361e+00 1.000000000000e+00 
2.289432367350e+00 1.000000000000e+00 
3.261089335986e+00 1.000000000000e+00 
3.265590876261e+00 1.000000000000e+00 
3.270092416537e+00 1.000000000000e+00 
3.274593956813e+00 1.000000000000e+00 
3.279095497088e+00 1.000000000000e+00 
4.251419360579e+00 1.000000000000e+00 
4.255754177141e+00 1.000000000000e+00 
4.260088993702e+00 1.000000000000e+00 
4.264423810264e+00 1.000000000000e+00 
4.268758626826e+00 1.000000000000e+00 
5.241749385171e+00 1.000000000000e+00 
5.245917478019e+00 1.000000000000e+00 
5.250085570867e+00 1.000000000000e+00 
5.254253663715e+00 1.000000000000e+00 
5.258421756562e+00 1.000000000000e+00 
6.232079409764e+00 1.000000000000e+00 
6.236080778897e+00 1.000000000000e+00 
6.240082148031e+00 1.000000000000e+00 
6.244083517165e+00 1.000000000000e+00 
6.248084886299e+00 1.000000000000e+00 
7.222409434356e+00 1.000000000000e+00 
7.226244079776e+00 1.000000000000e+00 
7.230078725196e+00 1.000000000000e+00 
7.233913370616e+00 1.000000000000e+00 
7.237748016036e+00 1.000000000000e+00 
8.212739458948e+00 1.000000000000e+00 
8.216407380654e+00 1.000000000000e+00 
8.220075302360e+00 1.000000000000e+00 
8.223743224066e+00 1.000000000000e+00 
8.227411145772e+00 1.000000000000e+00 
9.203069483538e+00 1.000000000000e+00 
9.206570681530e+00 1.000000000000e+00 
9.210071879522e+00 1.000000000000e+00 
9.213573077514e+00 1.000000000000e+00 
9.217074275506e+00 1.000000000000e+00 
1.019339950813e+01 1.000000000000e+00 
1.019673398241e+01 1.000000000000e+00 
1.020006845668e+01 1.000000000000e+00 
1.020340293096e+01 1.000000000000e+00 
1.020673740524e+01 1.000000000000e+00 
1.118372953272e+01 1.000000000000e+00 
1.118689728328e+01 1.000000000000e+00 
1.119006503384e+01 1.000000000000e+00 
1.119323278441e+01 1.000000000000e+00 
1.119640053497e+01 1.000000000000e+00 
1.217405955731e+01 1.000000000000e+00 
1.217706058416e+01 1.000000000000e+00 
1.218006161101e+01 1.000000000000e+00 
1.218306263786e+01 1.000000000000e+00 
1.218606366471e+01 1.000000000000e+00 
1.316438958189e+01 1.000000000000e+00 
1.316722388503e+01 1.000000000000e+00 
1.317005818817e+01 1.000000000000e+00 
1.317289249130e+01 1.000000000000e+00 
1.317572679444e+01 1.000000000000e+00 
1.415471960648e+01 1.000000000000e+00 
1.415738718591e+01 1.000000000000e+00 
1.416005476533e+01 1.000000000000e+00 
1.416272234475e+01 1.000000000000e+00 
1.416538992417e+01 1.000000000000e+00 
1.514504963107e+01 1.000000000000e+00 
1.514755048678e+01 1.000000000000e+00 
1.515005134249e+01 1.000000000000e+00 
1.515255219820e+01 1.000000000000e+00 
1.515505305391e+01 1.000000000000e+00 
1.613537965567e+01 1.000000000000e+00 
1.613771378766e+01 1.000000000000e+00 
1.614004791966e+01 1.000000000000e+00 
1.614238205165e+01 1.000000000000e+00 
1.614471618365e+01 1.000000000000e+00 
1.712570968026e+01 1.000000000000e+00 
1.712787708854e+01 1.000000000000e+00 
1.713004449683e+01 1.000000000000e+00 
1.713221190511e+01 1.000000000000e+00 
1.713437931339e+01 1.000000000000e+00 
1.811603970486e+01 1.000000000000e+00 
1.811804038943e+01 1.000000000000e+00 
1.812004107399e+01 1.000000000000e+00 
1.812204175856e+01 1.000000000000e+00 
1.812404244313e+01 1.000000000000e+00 
1.910636972945e+01 1.000000000000e+00 
1.910820369031e+01 1.000000000000e+00 
1.911003765116e+01 1.000000000000e+00 
1.911187161201e+01 1.000000000000e+00 
1.911370557287e+01 1.000000000000e+00 
2.009669975405e+01 1.000000000000e+00 
2.009836699119e+01 1.000000000000e+00 
2.010003422833e+01 1.000000000000e+00 
2.010170146547e+01 1.000000000000e+00 
2.010336870261e+01 1.000000000000e+00 
2.108702977864e+01 1.000000000000e+00 
2.108853029207e+01 1.000000000000e+00 
2.109003080549e+01 1.000000000000e+00 
2.109153131892e+01 1.000000000000e+00 
2.109303183234e+01 1.000000000000e+00 
2.207735980324e+01 1.000000000000e+00 
2.207869359295e+01 1.000000000000e+00 
2.208002738266e+01 1.000000000000e+00 
2.208136117237e+01 1.000000000000e+00 
2.208269496208e+01 1.000000000000e+00 
2.306768982783e+01 1.000000000000e+00 
2.306885689383e+01 1.000000000000e+00 
2.307002395983e+01 1.000000000000e+00 
2.307119102583e+01 1.000000000000e+00 
2.307235809182e+01 1.000000000000e+00 
2.405801985243e+01 1.000000000000e+00 
2.405902019471e+01 1.000000000000e+00 
2.406002053700e+01 1.000000000000e+00 
2.406102087928e+01 1.000000000000e+00 
2.406202122156e+01 1.000000000000e+00 
2.504834987702e+01 1.000000000000e+00 
2.504918349559e+01 1.000000000000e+00 
2.505001711416e+01 1.000000000000e+00 
2.505085073273e+01 1.000000000000e+00 
2.505168435130e+01 1.000000000000e+00 
2.603867990162e+01 1.000000000000e+00 
2.603934679648e+01 1.000000000000e+00 
2.604001369133e+01 1.000000000000e+00 
2.604068058619e+01 1.000000000000e+00 
2.604134748104e+01 1.000000000000e+00 
2.702900992621e+01 1.000000000000e+00 
2.702951009736e+01 1.000000000000e+00 
2.703001026850e+01 1.000000000000e+00 
2.703051043964e+01 1.000000000000e+00 
2.703101061078e+01 1.000000000000e+00 
2.801933995081e+01 1.000000000000e+00 
2.801967339824e+01 1.000000000000e+00 
2.802000684567e+01 1.000000000000e+00 
2.802034029309e+01 1.000000000000e+00 
2.802067374052e+01 1.000000000000e+00 
2.900966997540e+01 1.000000000000e+00 
2.900983669912e+01 1.000000000000e+00 
2.901000342283e+01 1.000000000000e+00 
2.901017014655e+01 1.000000000000e+00 
2.901033687026e+01 1.000000000000e+00 
3.000000000000e+01 1.000000000000e+00 
3.000000000000e+01 1.000000000000e+00 
3.000000000000e+01 1.000000000000e+00 
3.000000000000e+01 1.000000000000e+00 
3.000000000000e+01 1.000000000000e+00 
3.002500000000e+01 1.000000000000e+00 
3.002500000000e+01 1.000000000000e+00 
3.002500000000e+01 1.000000000000e+00 
3.002500000000e+01 1.000000000000e+00 
3.002500000000e+01 1.000000000000e+00 
3.005000000000e+01 1.000000000000e+00 
3.005000000000e+01 1.000000000000e+00 
3.005000000000e+01 1.000000000000e+00 
3.005000000000e+01 1.000000000000e+00 
3.005000000000e+01 1.000000000000e+00 
3.007500000000e+01 1.000000000000e+00 
3.007500000000e+01 1.000000000000e+00 
3.007500000000e+01 1.000000000000e+00 
3.007500000000e+01 1.000000000000e+00 
3.007500000000e+01 1.000000000000e+00 
3.010000000000e+01 1.000000000000e+00 
3.010000000000e+01 1.000000000000e+00 
3.010000000000e+01 1.000000000000e+00 
3.010000000000e+01 1.000000000000e+00 
3.010000000000e+01 1.000000000000e+00 
3.012500000000e+01 1.000000000000e+00 
3.012500000000e+01 1.000000000000e+00 
3.012500000000e+01 1.000000000000e+00 
3.012500000000e+01 1.000000000000e+00 
3.012500000000e+01 1.000000000000e+00 
3.015000000000e+01 1.000000000000e+00 
3.015000000000e+01 1.000000000000e+00 
3.015000000000e+01 1.000000000000e+00 