 TITLE = "Profiles along polylines"
 VARIABLES = "DIST" "SATURATION1" 
 ZONE T="TIME=0.000000000000e+00"
1.612077131177e+01 1.000000000000e+00 
1.616075353028e+01 1.000000000000e+00 
1.620073574880e+01 1.000000000000e+00 
1.624071796732e+01 1.000000000000e+00 
1.628070018583e+01 1.000000000000e+00 
1.658341226804e+01 1.000000000000e+00 
1.662206174594e+01 1.000000000000e+00 
1.666071122384e+01 1.000000000000e+00 
1.669936070174e+01 1.000000000000e+00 
1.673801017964e+01 1.000000000000e+00 
1.704605322432e+01 1.000000000000e+00 
1.708336996160e+01 1.000000000000e+00 
1.712068669888e+01 1.000000000000e+00 
1.715800343616e+01 1.000000000000e+00 
1.719532017344e+01 1.000000000000e+00 
1.750869418059e+01 1.000000000000e+00 
1.754467817725e+01 1.000000000000e+00 
1.758066217392e+01 1.000000000000e+00 
1.761664617058e+01 1.000000000000e+00 
1.765263016725e+01 1.000000000000e+00 
1.797133513686e+01 1.000000000000e+00 
1.800598639291e+01 1.000000000000e+00 
1.804063764896e+01 1.000000000000e+00 
1.807528890501e+01 1.000000000000e+00 
1.810994016105e+01 1.000000000000e+00 
1.843397609314e+01 1.000000000000e+00 
1.846729460857e+01 1.000000000000e+00 
1.850061312400e+01 1.000000000000e+00 
1.853393163943e+01 1.000000000000e+00 
1.856725015486e+01 1.000000000000e+00 
1.889661704941e+01 1.000000000000e+00 
1.892860282423e+01 1.000000000000e+00 
1.896058859904e+01 1.000000000000e+00 
1.899257437385e+01 1.000000000000e+00 
1.902456014867e+01 1.000000000000e+00 
1.935925800569e+01 1.000000000000e+00 
1.938991103988e+01 1.000000000000e+00 
1.942056407408e+01 1.000000000000e+00 
1.945121710827e+01 1.000000000000e+00 
1.948187014247e+01 1.000000000000e+00 
1.982189896196e+01 1.000000000000e+00 
1.985121925554e+01 1.000000000000e+00 
1.988053954912e+01 1.000000000000e+00 
1.990985984270e+01 1.000000000000e+00 
1.993918013628e+01 1.000000000000e+00 
2.028453991824e+01 1.000000000000e+00 
2.031252747120e+01 1.000000000000e+00 
2.034051502416e+01 1.000000000000e+00 
2.036850257712e+01 1.000000000000e+00 
2.039649013008e+01 1.000000000000e+00 
2.074718087451e+01 1.000000000000e+00 
2.077383568685e+01 1.000000000000e+00 
2.080049049920e+01 1.000000000000e+00 
2.082714531154e+01 1.000000000000e+00 
2.085380012389e+01 1.000000000000e+00 
2.120982183078e+01 1.000000000000e+00 
2.123514390251e+01 1.000000000000e+00 
2.126046597424e+01 1.000000000000e+00 
2.128578804596e+01 1.000000000000e+00 
2.131111011769e+01 1.000000000000e+00 
2.167246278706e+01 1.000000000000e+00 
2.169645211817e+01 1.000000000000e+00 
2.172044144928e+01 1.000000000000e+00 
2.174443078039e+01 1.000000000000e+00 
2.176842011150e+01 1.000000000000e+00 
2.213510374333e+01 1.000000000000e+00 
2.215776033382e+01 1.000000000000e+00 
2.218041692432e+01 1.000000000000e+00 
2.220307351481e+01 1.000000000000e+00 
2.222573010530e+01 1.000000000000e+00 
2.259774469960e+01 1.000000000000e+00 
2.261906854948e+01 1.000000000000e+00 
2.264039239936e+01 1.000000000000e+00 
2.266171624923e+01 1.000000000000e+00 
2.268304009911e+01 1.000000000000e+00 
2.306038565588e+01 1.000000000000e+00 
2.308037676514e+01 1.000000000000e+00 
2.310036787439e+01 1.000000000000e+00 
2.312035898365e+01 1.000000000000e+00 
2.314035009291e+01 1.000000000000e+00 
2.352302661215e+01 1.000000000000e+00 
2.354168498079e+01 1.000000000000e+00 
2.356034334944e+01 1.000000000000e+00 
2.357900171808e+01 1.000000000000e+00 
2.359766008672e+01 1.000000000000e+00 
2.398566756843e+01 1.000000000000e+00 
2.400299319645e+01 1.000000000000e+00 
2.402031882448e+01 1.000000000000e+00 
2.403764445250e+01 1.000000000000e+00 
2.405497008052e+01 1.000000000000e+00 
2.444830852470e+01 1.000000000000e+00 
2.446430141211e+01 1.000000000000e+00 
2.448029429952e+01 1.000000000000e+00 
2.449628718692e+01 1.000000000000e+00 
2.451228007433e+01 1.000000000000e+00 
2.491094948098e+01 1.000000000000e+00 
2.492560962777e+01 1.000000000000e+00 
2.494026977456e+01 1.000000000000e+00 
2.495492992135e+01 1.000000000000e+00 
2.496959006813e+01 1.000000000000e+00 
2.537359043725e+01 1.000000000000e+00 
2.538691784342e+01 1.000000000000e+00 
2.540024524960e+01 1.000000000000e+00 
2.541357265577e+01 1.000000000000e+00 
2.542690006194e+01 1.000000000000e+00 
2.583623139353e+01 1.000000000000e+00 
2.584822605908e+01 1.000000000000e+00 
2.586022072464e+01 1.000000000000e+00 
2.587221539019e+01 1.000000000000e+00 
2.588421005575e+01 1.000000000000e+00 
2.629887234980e+01 1.000000000000e+00 
2.630953427474e+01 1.000000000000e+00 
2.632019619968e+01 1.000000000000e+00 
2.633085812461e+01 1.000000000000e+00 
2.634152004955e+01 1.000000000000e+00 
2.676151330608e+01 1.000000000000e+00 
2.677084249040e+01 1.000000000000e+00 
2.678017167472e+01 1.000000000000e+00 
2.678950085904e+01 1.000000000000e+00 
2.679883004336e+01 1.000000000000e+00 
2.722415426235e+01 1.000000000000e+00 
2.723215070605e+01 1.000000000000e+00 
2.724014714976e+01 1.000000000000e+00 
2.724814359346e+01 1.000000000000e+00 
2.725614003716e+01 1.000000000000e+00 
2.768679521863e+01 1.000000000000e+00 
2.769345892171e+01 1.000000000000e+00 
2.770012262480e+01 1.000000000000e+00 
2.770678632788e+01 1.000000000000e+00 
2.771345003097e+01 1.000000000000e+00 
2.814943617490e+01 1.000000000000e+00 
2.815476713737e+01 1.000000000000e+00 
2.816009809984e+01 1.000000000000e+00 
2.816542906231e+01 1.000000000000e+00 
2.817076002478e+01 1.000000000000e+00 
2.861207713118e+01 1.000000000000e+00 
2.861607535303e+01 1.000000000000e+00 
2.862007357488e+01 1.000000000000e+00 
2.862407179673e+01 1.000000000000e+00 
2.862807001858e+01 1.000000000000e+00 
2.907471808745e+01 1.000000000000e+00 
2.907738356868e+01 1.000000000000e+00 
2.908004904992e+01 1.000000000000e+00 
2.908271453115e+01 1.000000000000e+00 
2.908538001239e+01 1.000000000000e+00 
2.953735904373e+01 1.000000000000e+00 
2.953869178434e+01 1.000000000000e+00 
2.954002452496e+01 1.000000000000e+00 
2.954135726558e+01 1.000000000000e+00 
2.954269000619e+01 1.000000000000e+00 
3.000000000000e+01 1.000000000000e+00 
3.000000000000e+01 1.000000000000e+00 
3.000000000000e+01 1.000000000000e+00 
3.000000000000e+01 1.000000000000e+00 
3.000000000000e+01 1.000000000000e+00 
3.002500000000e+01 9.876207709446e-01 
3.002500000000e+01 9.876207709446e-01 
3.002500000000e+01 9.876207709446e-01 
3.002500000000e+01 9.876207709446e-01 
3.002500000000e+01 9.876207709446e-01 
3.005000000000e+01 9.697756439369e-01 
3.005000000000e+01 9.697756439369e-01 
3.005000000000e+01 9.697756439369e-01 
3.005000000000e+01 9.697756439369e-01 
3.005000000000e+01 9.697756439369e-01 
3.007500000000e+01 9.507134089444e-01 
3.007500000000e+01 9.507134089444e-01 
3.007500000000e+01 9.507134089444e-01 
3.007500000000e+01 9.507134089444e-01 
3.007500000000e+01 9.507134089444e-01 
3.010000000000e+01 9.315621650298e-01 
3.010000000000e+01 9.315621650298e-01 
3.010000000000e+01 9.315621650298e-01 
3.010000000000e+01 9.315621650298e-01 
3.010000000000e+01 9.315621650298e-01 
3.012500000000e+01 9.128758324042e-01 
3.012500000000e+01 9.128758324042e-01 
3.012500000000e+01 9.128758324042e-01 
3.012500000000e+01 9.128758324042e-01 
3.012500000000e+01 9.128758324042e-01 
3.015000000000e+01 8.949248043380e-01 
3.015000000000e+01 8.949248043380e-01 
3.015000000000e+01 8.949248043380e-01 
3.015000000000e+01 8.949248043380e-01 
3.015000000000e+01 8.949248043380e-01 
3.017500000000e+01 8.778290027968e-01 
3.017500000000e+01 8.778290027968e-01 
3.017500000000e+01 8.778290027968e-01 
3.017500000000e+01 8.778290027968e-01 
3.017500000000e+01 8.778290027968e-01 
3.020000000000e+01 8.616255702900e-01 
3.020000000000e+01 8.616255702900e-01 
3.020000000000e+01 8.616255702900e-01 
3.020000000000e+01 8.616255702900e-01 
3.020000000000e+01 8.616255702900e-01 
3.022500000000e+01 8.463059583920e-01 
3.022500000000e+01 8.463059583920e-01 
3.022500000000e+01 8.463059583920e-01 
3.022500000000e+01 8.463059583920e-01 
3.022500000000e+01 8.463059583920e-01 
3.025000000000e+01 8.318370344398e-01 
3.025000000000e+01 8.318370344398e-01 
3.025000000000e+01 8.318370344398e-01 
3.025000000000e+01 8.318370344398e-01 
3.025000000000e+01 8.318370344398e-01 
3.027500000000e+01 8.181733156316e-01 
3.027500000000e+01 8.181733156316e-01 
3.027500000000e+01 8.181733156316e-01 
3.027500000000e+01 8.181733156316e-01 
3.027500000000e+01 8.181733156316e-01 
3.030000000000e+01 8.052640970350e-01 
3.030000000000e+01 8.052640970350e-01 
3.030000000000e+01 8.052640970350e-01 
3.030000000000e+01 8.052640970350e-01 
3.030000000000e+01 8.052640970350e-01 
3.032500000000e+01 7.930575753856e-01 
3.032500000000e+01 7.930575753856e-01 
3.032500000000e+01 7.930575753856e-01 
3.032500000000e+01 7.930575753856e-01 
3.032500000000e+01 7.930575753856e-01 
3.035000000000e+01 7.815031815402e-01 
3.035000000000e+01 7.815031815402e-01 
3.035000000000e+01 7.815031815402e-01 
3.035000000000e+01 7.815031815402e-01 
3.035000000000e+01 7.815031815402e-01 
3.037500000000e+01 7.705528376764e-01 
3.037500000000e+01 7.705528376764e-01 
3.037500000000e+01 7.705528376764e-01 
3.037500000000e+01 7.705528376764e-01 
3.037500000000e+01 7.705528376764e-01 
3.040000000000e+01 7.601615689674e-01 
3.040000000000e+01 7.601615689674e-01 
3.040000000000e+01 7.601615689674e-01 
3.040000000000e+01 7.601615689674e-01 
3.040000000000e+01 7.601615689674e-01 
3.042500000000e+01 7.502877306002e-01 
3.042500000000e+01 7.502877306002e-01 
3.042500000000e+01 7.502877306002e-01 
3.042500000000e+01 7.502877306002e-01 
3.042500000000e+01 7.502877306002e-01 
3.045000000000e+01 7.408930096824e-01 
3.045000000000e+01 7.408930096824e-01 
3.045000000000e+01 7.408930096824e-01 
3.045000000000e+01 7.408930096824e-01 
3.045000000000e+01 7.408930096824e-01 
3.047500000000e+01 7.319422999608e-01 
3.047500000000e+01 7.319422999608e-01 
3.047500000000e+01 7.319422999608e-01 
3.047500000000e+01 7.319422999608e-01 
3.047500000000e+01 7.319422999608e-01 
3.050000000000e+01 7.234035093991e-01 
3.050000000000e+01 7.234035093991e-01 
3.050000000000e+01 7.234035093991e-01 
3.050000000000e+01 7.234035093991e-01 
3.050000000000e+01 7.234035093991e-01 
3.052500000000e+01 7.152473371957e-01 
3.052500000000e+01 7.152473371957e-01 
3.052500000000e+01 7.152473371957e-01 
3.052500000000e+01 7.152473371957e-01 
3.052500000000e+01 7.152473371957e-01 
3.055000000000e+01 7.074470422112e-01 
3.055000000000e+01 7.074470422112e-01 
3.055000000000e+01 7.074470422112e-01 
3.055000000000e+01 7.074470422112e-01 
3.055000000000e+01 7.074470422112e-01 
3.057500000000e+01 6.999782156504e-01 
3.057500000000e+01 6.999782156504e-01 
3.057500000000e+01 6.999782156504e-01 
3.057500000000e+01 6.999782156504e-01 
3.057500000000e+01 6.999782156504e-01 
3.060000000000e+01 6.928185651596e-01 
3.060000000000e+01 6.928185651596e-01 
3.060000000000e+01 6.928185651596e-01 
3.060000000000e+01 6.928185651596e-01 
3.060000000000e+01 6.928185651596e-01 
3.062500000000e+01 6.859477139679e-01 
3.062500000000e+01 6.859477139679e-01 
3.062500000000e+01 6.859477139679e-01 
3.062500000000e+01 6.859477139679e-01 
3.062500000000e+01 6.859477139679e-01 
3.065000000000e+01 6.793470165436e-01 
3.065000000000e+01 6.793470165436e-01 
3.065000000000e+01 6.793470165436e-01 
3.065000000000e+01 6.793470165436e-01 
3.065000000000e+01 6.793470165436e-01 
3.067500000000e+01 6.729993909360e-01 
3.067500000000e+01 6.729993909360e-01 
3.067500000000e+01 6.729993909360e-01 
3.067500000000e+01 6.729993909360e-01 
3.067500000000e+01 6.729993909360e-01 
3.070000000000e+01 6.668891672206e-01 
3.070000000000e+01 6.668891672206e-01 
3.070000000000e+01 6.668891672206e-01 
3.070000000000e+01 6.668891672206e-01 
3.070000000000e+01 6.668891672206e-01 
3.072500000000e+01 6.610019510587e-01 
3.072500000000e+01 6.610019510587e-01 
3.072500000000e+01 6.610019510587e-01 
3.072500000000e+01 6.610019510587e-01 
3.072500000000e+01 6.610019510587e-01 
3.075000000000e+01 6.553245011865e-01 
3.075000000000e+01 6.553245011865e-01 
3.075000000000e+01 6.553245011865e-01 
3.075000000000e+01 6.553245011865e-01 
3.075000000000e+01 6.553245011865e-01 
3.077500000000e+01 6.498446195878e-01 
3.077500000000e+01 6.498446195878e-01 
3.077500000000e+01 6.498446195878e-01 
3.077500000000e+01 6.498446195878e-01 
3.077500000000e+01 6.498446195878e-01 
3.080000000000e+01 6.445510531188e-01 
3.080000000000e+01 6.445510531188e-01 
3.080000000000e+01 6.445510531188e-01 
3.080000000000e+01 6.445510531188e-01 
3.080000000000e+01 6.445510531188e-01 
3.082500000000e+01 6.394334054150e-01 
3.082500000000e+01 6.394334054150e-01 
3.082500000000e+01 6.394334054150e-01 
3.082500000000e+01 6.394334054150e-01 
3.082500000000e+01 6.394334054150e-01 
3.085000000000e+01 6.344820579917e-01 
3.085000000000e+01 6.344820579917e-01 
3.085000000000e+01 6.344820579917e-01 
3.085000000000e+01 6.344820579917e-01 
3.085000000000e+01 6.344820579917e-01 
3.087500000000e+01 6.296880995462e-01 
3.087500000000e+01 6.296880995462e-01 
3.087500000000e+01 6.296880995462e-01 
3.087500000000e+01 6.296880995462e-01 
3.087500000000e+01 6.296880995462e-01 
3.090000000000e+01 6.250432625624e-01 
3.090000000000e+01 6.250432625624e-01 
3.090000000000e+01 6.250432625624e-01 
3.090000000000e+01 6.250432625624e-01 
3.090000000000e+01 6.250432625624e-01 
3.092500000000e+01 6.205398664126e-01 
3.092500000000e+01 6.205398664126e-01 
3.092500000000e+01 6.205398664126e-01 
3.092500000000e+01 6.205398664126e-01 
3.092500000000e+01 6.205398664126e-01 
3.095000000000e+01 6.161707662369e-01 
3.095000000000e+01 6.161707662369e-01 
3.095000000000e+01 6.161707662369e-01 
3.095000000000e+01 6.161707662369e-01 
3.095000000000e+01 6.161707662369e-01 
3.097500000000e+01 6.119293069613e-01 
3.097500000000e+01 6.119293069613e-01 
3.097500000000e+01 6.119293069613e-01 
3.097500000000e+01 6.119293069613e-01 
3.097500000000e+01 6.119293069613e-01 
3.100000000000e+01 6.078092818871e-01 
3.100000000000e+01 6.078092818871e-01 
3.100000000000e+01 6.078092818871e-01 
3.100000000000e+01 6.078092818871e-01 
3.100000000000e+01 6.078092818871e-01 
3.102500000000e+01 6.038048953494e-01 
3.102500000000e+01 6.038048953494e-01 
3.102500000000e+01 6.038048953494e-01 
3.102500000000e+01 6.038048953494e-01 
3.102500000000e+01 6.038048953494e-01 
3.105000000000e+01 5.999107290013e-01 
3.105000000000e+01 5.999107290013e-01 
3.105000000000e+01 5.999107290013e-01 
3.105000000000e+01 5.999107290013e-01 
3.105000000000e+01 5.999107290013e-01 
3.107500000000e+01 5.961217113309e-01 
3.107500000000e+01 5.961217113309e-01 
3.107500000000e+01 5.961217113309e-01 
3.107500000000e+01 5.961217113309e-01 
3.107500000000e+01 5.961217113309e-01 
3.110000000000e+01 5.924330900627e-01 
3.110000000000e+01 5.924330900627e-01 
3.110000000000e+01 5.924330900627e-01 
3.110000000000e+01 5.924330900627e-01 
3.110000000000e+01 5.924330900627e-01 
3.112500000000e+01 5.888404071392e-01 
3.112500000000e+01 5.888404071392e-01 
3.112500000000e+01 5.888404071392e-01 
3.112500000000e+01 5.888404071392e-01 
3.112500000000e+01 5.888404071392e-01 
3.115000000000e+01 5.853394760078e-01 
3.115000000000e+01 5.853394760078e-01 
3.115000000000e+01 5.853394760078e-01 
3.115000000000e+01 5.853394760078e-01 
3.115000000000e+01 5.853394760078e-01 
3.117500000000e+01 5.819263609758e-01 
3.117500000000e+01 5.819263609758e-01 
3.117500000000e+01 5.819263609758e-01 
3.117500000000e+01 5.819263609758e-01 
3.117500000000e+01 5.819263609758e-01 
3.120000000000e+01 5.785973584173e-01 
3.120000000000e+01 5.785973584173e-01 
3.120000000000e+01 5.785973584173e-01 
3.120000000000e+01 5.785973584173e-01 
3.120000000000e+01 5.785973584173e-01 
3.122500000000e+01 5.753489796460e-01 
3.122500000000e+01 5.753489796460e-01 
3.122500000000e+01 5.753489796460e-01 
3.122500000000e+01 5.753489796460e-01 
3.122500000000e+01 5.753489796460e-01 
3.125000000000e+01 5.721779352840e-01 
3.125000000000e+01 5.721779352840e-01 
3.125000000000e+01 5.721779352840e-01 
3.125000000000e+01 5.721779352840e-01 
3.125000000000e+01 5.721779352840e-01 
3.127500000000e+01 5.690811209785e-01 
3.127500000000e+01 5.690811209785e-01 
3.127500000000e+01 5.690811209785e-01 
3.127500000000e+01 5.690811209785e-01 
3.127500000000e+01 5.690811209785e-01 
3.130000000000e+01 5.660556043336e-01 
3.130000000000e+01 5.660556043336e-01 
3.130000000000e+01 5.660556043336e-01 
3.130000000000e+01 5.660556043336e-01 
3.130000000000e+01 5.660556043336e-01 
3.132500000000e+01 5.630986129391e-01 
3.132500000000e+01 5.630986129391e-01 
3.132500000000e+01 5.630986129391e-01 
3.132500000000e+01 5.630986129391e-01 
3.132500000000e+01 5.630986129391e-01 
3.135000000000e+01 5.602075233904e-01 
3.135000000000e+01 5.602075233904e-01 
3.135000000000e+01 5.602075233904e-01 
3.135000000000e+01 5.602075233904e-01 
3.135000000000e+01 5.602075233904e-01 
3.137500000000e+01 5.573798512060e-01 
3.137500000000e+01 5.573798512060e-01 
3.137500000000e+01 5.573798512060e-01 
3.137500000000e+01 5.573798512060e-01 
3.137500000000e+01 5.573798512060e-01 
3.140000000000e+01 5.546132415581e-01 
3.140000000000e+01 5.546132415581e-01 
3.140000000000e+01 5.546132415581e-01 
3.140000000000e+01 5.546132415581e-01 
3.140000000000e+01 5.546132415581e-01 
3.142500000000e+01 5.519054607414e-01 
3.142500000000e+01 5.519054607414e-01 
3.142500000000e+01 5.519054607414e-01 
3.142500000000e+01 5.519054607414e-01 
3.142500000000e+01 5.519054607414e-01 
3.145000000000e+01 5.492543883110e-01 
3.145000000000e+01 5.492543883110e-01 
3.145000000000e+01 5.492543883110e-01 
3.145000000000e+01 5.492543883110e-01 
3.145000000000e+01 5.492543883110e-01 
3.147500000000e+01 5.466580098318e-01 
3.147500000000e+01 5.466580098318e-01 
3.147500000000e+01 5.466580098318e-01 
3.147500000000e+01 5.466580098318e-01 
3.147500000000e+01 5.466580098318e-01 
3.150000000000e+01 5.441144101810e-01 
3.150000000000e+01 5.441144101810e-01 
3.150000000000e+01 5.441144101810e-01 
3.150000000000e+01 5.441144101810e-01 
3.150000000000e+01 5.441144101810e-01 
3.152500000000e+01 5.416217673588e-01 
3.152500000000e+01 5.416217673588e-01 
3.152500000000e+01 5.416217673588e-01 
3.152500000000e+01 5.416217673588e-01 
3.152500000000e+01 5.416217673588e-01 
3.155000000000e+01 5.391783467591e-01 
3.155000000000e+01 5.391783467591e-01 
3.155000000000e+01 5.391783467591e-01 
3.155000000000e+01 5.391783467591e-01 
3.155000000000e+01 5.391783467591e-01 
3.157500000000e+01 5.367824958643e-01 
3.157500000000e+01 5.367824958643e-01 
3.157500000000e+01 5.367824958643e-01 
3.157500000000e+01 5.367824958643e-01 
3.157500000000e+01 5.367824958643e-01 
3.160000000000e+01 5.344326393247e-01 
3.160000000000e+01 5.344326393247e-01 
3.160000000000e+01 5.344326393247e-01 
3.160000000000e+01 5.344326393247e-01 
3.160000000000e+01 5.344326393247e-01 
3.162500000000e+01 5.321272743928e-01 
3.162500000000e+01 5.321272743928e-01 
3.162500000000e+01 5.321272743928e-01 
3.162500000000e+01 5.321272743928e-01 
3.162500000000e+01 5.321272743928e-01 
3.165000000000e+01 5.298649666811e-01 
3.165000000000e+01 5.298649666811e-01 
3.165000000000e+01 5.298649666811e-01 
3.165000000000e+01 5.298649666811e-01 
3.165000000000e+01 5.298649666811e-01 
3.167500000000e+01 5.276443462180e-01 
3.167500000000e+01 5.276443462180e-01 
3.167500000000e+01 5.276443462180e-01 
3.167500000000e+01 5.276443462180e-01 
3.167500000000e+01 5.276443462180e-01 
3.170000000000e+01 5.254641037767e-01 
3.170000000000e+01 5.254641037767e-01 
3.170000000000e+01 5.254641037767e-01 
3.170000000000e+01 5.254641037767e-01 
3.170000000000e+01 5.254641037767e-01 
3.172500000000e+01 5.233229874560e-01 
3.172500000000e+01 5.233229874560e-01 
3.172500000000e+01 5.233229874560e-01 
3.172500000000e+01 5.233229874560e-01 
3.172500000000e+01 5.233229874560e-01 
3.175000000000e+01 5.212197994921e-01 
3.175000000000e+01 5.212197994921e-01 
3.175000000000e+01 5.212197994921e-01 
3.175000000000e+01 5.212197994921e-01 
3.175000000000e+01 5.212197994921e-01 
3.177500000000e+01 5.191533932842e-01 
3.177500000000e+01 5.191533932842e-01 
3.177500000000e+01 5.191533932842e-01 
3.177500000000e+01 5.191533932842e-01 
3.177500000000e+01 5.191533932842e-01 
3.180000000000e+01 5.171226706164e-01 
3.180000000000e+01 5.171226706164e-01 
3.180000000000e+01 5.171226706164e-01 
3.180000000000e+01 5.171226706164e-01 
3.180000000000e+01 5.171226706164e-01 
3.182500000000e+01 5.151265790614e-01 
3.182500000000e+01 5.151265790614e-01 
3.182500000000e+01 5.151265790614e-01 
3.182500000000e+01 5.151265790614e-01 
3.182500000000e+01 5.151265790614e-01 
3.185000000000e+01 5.131641095520e-01 
3.185000000000e+01 5.131641095520e-01 
3.185000000000e+01 5.131641095520e-01 
3.185000000000e+01 5.131641095520e-01 
3.185000000000e+01 5.131641095520e-01 
3.187500000000e+01 5.112342941078e-01 
3.187500000000e+01 5.112342941078e-01 
3.187500000000e+01 5.112342941078e-01 
3.187500000000e+01 5.112342941078e-01 
3.187500000000e+01 5.112342941078e-01 
3.190000000000e+01 5.093362037054e-01 
3.190000000000e+01 5.093362037054e-01 
3.190000000000e+01 5.093362037054e-01 
3.190000000000e+01 5.093362037054e-01 
3.190000000000e+01 5.093362037054e-01 
3.192500000000e+01 5.074689462822e-01 
3.192500000000e+01 5.074689462822e-01 
3.192500000000e+01 5.074689462822e-01 
3.192500000000e+01 5.074689462822e-01 
3.192500000000e+01 5.074689462822e-01 
3.195000000000e+01 5.056316648631e-01 
3.195000000000e+01 5.056316648631e-01 
3.195000000000e+01 5.056316648631e-01 
3.195000000000e+01 5.056316648631e-01 
3.195000000000e+01 5.056316648631e-01 
3.197500000000e+01 5.038235358020e-01 
3.197500000000e+01 5.038235358020e-01 
3.197500000000e+01 5.038235358020e-01 
3.197500000000e+01 5.038235358020e-01 
3.197500000000e+01 5.038235358020e-01 
3.200000000000e+01 4.954879038988e-01 
3.200000000000e+01 4.955246006363e-01 
3.200000000000e+01 4.955429429481e-01 
3.200000000000e+01 4.955062542728e-01 
3.200000000000e+01 4.955612811664e-01 
3.582415426235e+01 3.674871919587e-01 
3.583215070606e+01 3.673388034126e-01 
3.584014714976e+01 3.671906819664e-01 
3.584814359346e+01 3.670428267940e-01 
3.585614003717e+01 3.668952370727e-01 
3.964830852471e+01 3.219382938363e-01 
3.966430141211e+01 3.217914577413e-01 
3.968029429952e+01 3.216449442641e-01 
3.969628718693e+01 3.214987521699e-01 
3.971228007433e+01 3.213528802306e-01 
4.347246278706e+01 2.945259861710e-01 
4.349645211817e+01 2.943848599614e-01 
4.352044144928e+01 2.942440667021e-01 
4.354443078039e+01 2.941036050223e-01 
4.356842011150e+01 2.939634735592e-01 
4.729661704941e+01 2.756933523038e-01 
4.732860282423e+01 2.755583689240e-01 
4.736058859904e+01 2.754237164020e-01 
4.739257437385e+01 2.752893933222e-01 
4.742456014867e+01 2.751553982774e-01 
5.112077131177e+01 2.616326240553e-01 
5.116075353028e+01 2.615032473106e-01 
5.120073574880e+01 2.613741953482e-01 
5.124071796732e+01 2.612454667448e-01 
5.128070018583e+01 2.611170600858e-01 
 TITLE = "Profiles along polylines"
 VARIABLES = "DIST" "SATURATION1" 
 ZONE T="TIME=1.797693134862e+308"
1.612077131177e+01 1.000000000000e+00 
1.616075353028e+01 1.000000000000e+00 
1.620073574880e+01 1.000000000000e+00 
1.624071796732e+01 1.000000000000e+00 
1.628070018583e+01 1.000000000000e+00 
1.658341226804e+01 1.000000000000e+00 
1.662206174594e+01 1.000000000000e+00 
1.666071122384e+01 1.000000000000e+00 
1.669936070174e+01 1.000000000000e+00 
1.673801017964e+01 1.000000000000e+00 
1.704605322432e+01 1.000000000000e+00 
1.708336996160e+01 1.000000000000e+00 
1.712068669888e+01 1.000000000000e+00 
1.715800343616e+01 1.000000000000e+00 
1.719532017344e+01 1.000000000000e+00 
1.750869418059e+01 1.000000000000e+00 
1.754467817725e+01 1.000000000000e+00 
1.758066217392e+01 1.000000000000e+00 
1.761664617058e+01 1.000000000000e+00 
1.765263016725e+01 1.000000000000e+00 
1.797133513686e+01 1.000000000000e+00 
1.800598639291e+01 1.000000000000e+00 
1.804063764896e+01 1.000000000000e+00 
1.807528890501e+01 1.000000000000e+00 
1.810994016105e+01 1.000000000000e+00 
1.843397609314e+01 1.000000000000e+00 
1.846729460857e+01 1.000000000000e+00 
1.850061312400e+01 1.000000000000e+00 
1.853393163943e+01 1.000000000000e+00 
1.856725015486e+01 1.000000000000e+00 
1.889661704941e+01 1.000000000000e+00 
1.892860282423e+01 1.000000000000e+00 
1.896058859904e+01 1.000000000000e+00 
1.899257437385e+01 1.000000000000e+00 
1.902456014867e+01 1.000000000000e+00 
1.935925800569e+01 1.000000000000e+00 
1.938991103988e+01 1.000000000000e+00 
1.942056407408e+01 1.000000000000e+00 
1.945121710827e+01 1.000000000000e+00 
1.948187014247e+01 1.000000000000e+00 
1.982189896196e+01 1.000000000000e+00 
1.985121925554e+01 1.000000000000e+00 
1.988053954912e+01 1.000000000000e+00 
1.990985984270e+01 1.000000000000e+00 
1.993918013628e+01 1.000000000000e+00 
2.028453991824e+01 1.000000000000e+00 
2.031252747120e+01 1.000000000000e+00 
2.034051502416e+01 1.000000000000e+00 
2.036850257712e+01 1.000000000000e+00 
2.039649013008e+01 1.000000000000e+00 
2.074718087451e+01 1.000000000000e+00 
2.077383568685e+01 1.000000000000e+00 
2.080049049920e+01 1.000000000000e+00 
2.082714531154e+01 1.000000000000e+00 
2.085380012389e+01 1.000000000000e+00 
2.120982183078e+01 1.000000000000e+00 
2.123514390251e+01 1.000000000000e+00 
2.126046597424e+01 1.000000000000e+00 
2.128578804596e+01 1.000000000000e+00 
2.131111011769e+01 1.000000000000e+00 
2.167246278706e+01 1.000000000000e+00 
2.169645211817e+01 1.000000000000e+00 
2.172044144928e+01 1.000000000000e+00 
2.174443078039e+01 1.000000000000e+00 
2.176842011150e+01 1.000000000000e+00 
2.213510374333e+01 1.000000000000e+00 
2.215776033382e+01 1.000000000000e+00 
2.218041692432e+01 1.000000000000e+00 
2.220307351481e+01 1.000000000000e+00 
2.222573010530e+01 1.000000000000e+00 
2.259774469960e+01 1.000000000000e+00 
2.261906854948e+01 1.000000000000e+00 
2.264039239936e+01 1.000000000000e+00 
2.266171624923e+01 1.000000000000e+00 
2.268304009911e+01 1.000000000000e+00 
2.306038565588e+01 1.000000000000e+00 
2.308037676514e+01 1.000000000000e+00 
2.310036787439e+01 1.000000000000e+00 
2.312035898365e+01 1.000000000000e+00 
2.314035009291e+01 1.000000000000e+00 
2.352302661215e+01 1.000000000000e+00 
2.354168498079e+01 1.000000000000e+00 
2.356034334944e+01 1.000000000000e+00 
2.357900171808e+01 1.000000000000e+00 
2.359766008672e+01 1.000000000000e+00 
2.398566756843e+01 1.000000000000e+00 
2.400299319645e+01 1.000000000000e+00 
2.402031882448e+01 1.000000000000e+00 
2.403764445250e+01 1.000000000000e+00 
2.405497008052e+01 1.000000000000e+00 
2.444830852470e+01 1.000000000000e+00 
2.446430141211e+01 1.000000000000e+00 
2.448029429952e+01 1.000000000000e+00 
2.449628718692e+01 1.000000000000e+00 
2.451228007433e+01 1.000000000000e+00 
2.491094948098e+01 1.000000000000e+00 
2.492560962777e+01 1.000000000000e+00 
2.494026977456e+01 1.000000000000e+00 
2.495492992135e+01 1.000000000000e+00 
2.496959006813e+01 1.000000000000e+00 
2.537359043725e+01 1.000000000000e+00 
2.538691784342e+01 1.000000000000e+00 
2.540024524960e+01 1.000000000000e+00 
2.541357265577e+01 1.000000000000e+00 
2.542690006194e+01 1.000000000000e+00 
2.583623139353e+01 1.000000000000e+00 
2.584822605908e+01 1.000000000000e+00 
2.586022072464e+01 1.000000000000e+00 
2.587221539019e+01 1.000000000000e+00 
2.588421005575e+01 1.000000000000e+00 
2.629887234980e+01 1.000000000000e+00 
2.630953427474e+01 1.000000000000e+00 
2.632019619968e+01 1.000000000000e+00 
2.633085812461e+01 1.000000000000e+00 
2.634152004955e+01 1.000000000000e+00 
2.676151330608e+01 1.000000000000e+00 
2.677084249040e+01 1.000000000000e+00 
2.678017167472e+01 1.000000000000e+00 
2.678950085904e+01 1.000000000000e+00 
2.679883004336e+01 1.000000000000e+00 
2.722415426235e+01 1.000000000000e+00 
2.723215070605e+01 1.000000000000e+00 
2.724014714976e+01 1.000000000000e+00 
2.724814359346e+01 1.000000000000e+00 
2.725614003716e+01 1.000000000000e+00 
2.768679521863e+01 1.000000000000e+00 
2.769345892171e+01 1.000000000000e+00 
2.770012262480e+01 1.000000000000e+00 
2.770678632788e+01 1.000000000000e+00 
2.771345003097e+01 1.000000000000e+00 
2.814943617490e+01 1.000000000000e+00 
2.815476713737e+01 1.000000000000e+00 
2.816009809984e+01 1.000000000000e+00 
2.816542906231e+01 1.000000000000e+00 
2.817076002478e+01 1.000000000000e+00 
2.861207713118e+01 1.000000000000e+00 
2.861607535303e+01 1.000000000000e+00 
2.862007357488e+01 1.000000000000e+00 
2.862407179673e+01 1.000000000000e+00 
2.862807001858e+01 1.000000000000e+00 
2.907471808745e+01 1.000000000000e+00 
2.907738356868e+01 1.000000000000e+00 
2.908004904992e+01 1.000000000000e+00 
2.908271453115e+01 1.000000000000e+00 
2.908538001239e+01 1.000000000000e+00 
2.953735904373e+01 1.000000000000e+00 
2.953869178434e+01 1.000000000000e+00 
2.954002452496e+01 1.000000000000e+00 
2.954135726558e+01 1.000000000000e+00 
2.954269000619e+01 1.000000000000e+00 
3.000000000000e+01 1.000000000000e+00 
3.000000000000e+01 1.000000000000e+00 
3.000000000000e+01 1.000000000000e+00 
3.000000000000e+01 1.000000000000e+00 
3.000000000000e+01 1.000000000000e+00 
3.002500000000e+01 1.000000000000e+00 
3.002500000000e+01 1.000000000000e+00 
3.002500000000e+01 1.000000000000e+00 
3.002500000000e+01 1.000000000000e+00 
3.002500000000e+01 1.000000000000e+00 
3.005000000000e+01 1.000000000000e+00 
3.005000000000e+01 1.000000000000e+00 
3.005000000000e+01 1.000000000000e+00 
3.005000000000e+01 1.000000000000e+00 
3.005000000000e+01 1.000000000000e+00 
3.007500000000e+01 1.000000000000e+00 
3.007500000000e+01 1.000000000000e+00 
3.007500000000e+01 1.000000000000e+00 
3.007500000000e+01 1.000000000000e+00 
3.007500000000e+01 1.000000000000e+00 
3.010000000000e+01 1.000000000000e+00 
3.010000000000e+01 1.000000000000e+00 
3.010000000000e+01 1.000000000000e+00 
3.010000000000e+01 1.000000000000e+00 
3.010000000000e+01 1.000000000000e+00 
3.012500000000e+01 1.000000000000e+00 
3.012500000000e+01 1.000000000000e+00 
3.012500000000e+01 1.000000000000e+00 
3.012500000000e+01 1.000000000000e+00 
3.012500000000e+01 1.000000000000e+00 
3.015000000000e+01 1.000000000000e+00 
3.015000000000e+01 1.000000000000e+00 
3.015000000000e+01 1.000000000000e+00 