 TITLE = "Profiles along polylines"
 VARIABLES = "DIST" "SATURATION1" 
 ZONE T="TIME=0.000000000000e+00"
1.240424431508e+00 1.000000000000e+00 
1.245426142925e+00 1.000000000000e+00 
1.250427854343e+00 1.000000000000e+00 
1.255429565760e+00 1.000000000000e+00 
1.260431277177e+00 1.000000000000e+00 
2.199076950458e+00 1.000000000000e+00 
2.203911938161e+00 1.000000000000e+00 
2.208746925864e+00 1.000000000000e+00 
2.213581913568e+00 1.000000000000e+00 
2.218416901271e+00 1.000000000000e+00 
3.157729469407e+00 1.000000000000e+00 
3.162397733396e+00 1.000000000000e+00 
3.167065997386e+00 1.000000000000e+00 
3.171734261375e+00 1.000000000000e+00 
3.176402525365e+00 1.000000000000e+00 
4.116381988357e+00 1.000000000000e+00 
4.120883528632e+00 1.000000000000e+00 
4.125385068908e+00 1.000000000000e+00 
4.129886609184e+00 1.000000000000e+00 
4.134388149459e+00 1.000000000000e+00 
5.075034507307e+00 1.000000000000e+00 
5.079369323868e+00 1.000000000000e+00 
5.083704140430e+00 1.000000000000e+00 
5.088038956992e+00 1.000000000000e+00 
5.092373773554e+00 1.000000000000e+00 
6.033687026256e+00 1.000000000000e+00 
6.037855119103e+00 1.000000000000e+00 
6.042023211951e+00 1.000000000000e+00 
6.046191304799e+00 1.000000000000e+00 
6.050359397647e+00 1.000000000000e+00 
6.992339545205e+00 1.000000000000e+00 
6.996340914338e+00 1.000000000000e+00 
7.000342283472e+00 1.000000000000e+00 
7.004343652606e+00 1.000000000000e+00 
7.008345021740e+00 1.000000000000e+00 
7.950992064154e+00 1.000000000000e+00 
7.954826709574e+00 1.000000000000e+00 
7.958661354993e+00 1.000000000000e+00 
7.962496000413e+00 1.000000000000e+00 
7.966330645833e+00 1.000000000000e+00 
8.909644583102e+00 1.000000000000e+00 
8.913312504808e+00 1.000000000000e+00 
8.916980426515e+00 1.000000000000e+00 
8.920648348221e+00 1.000000000000e+00 
8.924316269927e+00 1.000000000000e+00 
9.868297102049e+00 1.000000000000e+00 
9.871798300041e+00 1.000000000000e+00 
9.875299498033e+00 1.000000000000e+00 
9.878800696025e+00 1.000000000000e+00 
9.882301894018e+00 1.000000000000e+00 
1.082694962100e+01 1.000000000000e+00 
1.083028409527e+01 1.000000000000e+00 
1.083361856955e+01 1.000000000000e+00 
1.083695304383e+01 1.000000000000e+00 
1.084028751811e+01 1.000000000000e+00 
1.178560213994e+01 1.000000000000e+00 
1.178876989051e+01 1.000000000000e+00 
1.179193764107e+01 1.000000000000e+00 
1.179510539163e+01 1.000000000000e+00 
1.179827314220e+01 1.000000000000e+00 
1.274425465889e+01 1.000000000000e+00 
1.274725568574e+01 1.000000000000e+00 
1.275025671259e+01 1.000000000000e+00 
1.275325773944e+01 1.000000000000e+00 
1.275625876629e+01 1.000000000000e+00 
1.370290717783e+01 1.000000000000e+00 
1.370574148097e+01 1.000000000000e+00 
1.370857578411e+01 1.000000000000e+00 
1.371141008724e+01 1.000000000000e+00 
1.371424439038e+01 1.000000000000e+00 
1.466155969678e+01 1.000000000000e+00 
1.466422727620e+01 1.000000000000e+00 
1.466689485563e+01 1.000000000000e+00 
1.466956243505e+01 1.000000000000e+00 
1.467223001447e+01 1.000000000000e+00 
1.562021221573e+01 1.000000000000e+00 
1.562271307144e+01 1.000000000000e+00 
1.562521392714e+01 1.000000000000e+00 
1.562771478285e+01 1.000000000000e+00 
1.563021563856e+01 1.000000000000e+00 
1.657886473468e+01 1.000000000000e+00 
1.658119886667e+01 1.000000000000e+00 
1.658353299867e+01 1.000000000000e+00 
1.658586713066e+01 1.000000000000e+00 
1.658820126266e+01 1.000000000000e+00 
1.753751725363e+01 1.000000000000e+00 
1.753968466191e+01 1.000000000000e+00 
1.754185207019e+01 1.000000000000e+00 
1.754401947847e+01 1.000000000000e+00 
1.754618688675e+01 1.000000000000e+00 
1.849616977258e+01 1.000000000000e+00 
1.849817045715e+01 1.000000000000e+00 
1.850017114172e+01 1.000000000000e+00 
1.850217182628e+01 1.000000000000e+00 
1.850417251085e+01 1.000000000000e+00 
1.945482229153e+01 1.000000000000e+00 
1.945665625239e+01 1.000000000000e+00 
1.945849021324e+01 1.000000000000e+00 
1.946032417409e+01 1.000000000000e+00 
1.946215813495e+01 1.000000000000e+00 
2.041347481048e+01 1.000000000000e+00 
2.041514204762e+01 1.000000000000e+00 
2.041680928476e+01 1.000000000000e+00 
2.041847652190e+01 1.000000000000e+00 
2.042014375904e+01 1.000000000000e+00 
2.137212732944e+01 1.000000000000e+00 
2.137362784286e+01 1.000000000000e+00 
2.137512835629e+01 1.000000000000e+00 
2.137662886971e+01 1.000000000000e+00 
2.137812938314e+01 1.000000000000e+00 
2.233077984839e+01 1.000000000000e+00 
2.233211363810e+01 1.000000000000e+00 
2.233344742781e+01 1.000000000000e+00 
2.233478121752e+01 1.000000000000e+00 
2.233611500723e+01 1.000000000000e+00 
2.328943236734e+01 1.000000000000e+00 
2.329059943334e+01 1.000000000000e+00 
2.329176649933e+01 1.000000000000e+00 
2.329293356533e+01 1.000000000000e+00 
2.329410063133e+01 1.000000000000e+00 
2.424808488629e+01 1.000000000000e+00 
2.424908522857e+01 1.000000000000e+00 
2.425008557086e+01 1.000000000000e+00 
2.425108591314e+01 1.000000000000e+00 
2.425208625542e+01 1.000000000000e+00 
2.520673740524e+01 1.000000000000e+00 
2.520757102381e+01 1.000000000000e+00 
2.520840464238e+01 1.000000000000e+00 
2.520923826095e+01 1.000000000000e+00 
2.521007187952e+01 1.000000000000e+00 
2.616538992419e+01 1.000000000000e+00 
2.616605681905e+01 1.000000000000e+00 
2.616672371391e+01 1.000000000000e+00 
2.616739060876e+01 1.000000000000e+00 
2.616805750362e+01 1.000000000000e+00 
2.712404244315e+01 1.000000000000e+00 
2.712454261429e+01 1.000000000000e+00 
2.712504278543e+01 1.000000000000e+00 
2.712554295657e+01 1.000000000000e+00 
2.712604312771e+01 1.000000000000e+00 
2.808269496210e+01 1.000000000000e+00 
2.808302840952e+01 1.000000000000e+00 
2.808336185695e+01 1.000000000000e+00 
2.808369530438e+01 1.000000000000e+00 
2.808402875181e+01 1.000000000000e+00 
2.904134748105e+01 1.000000000000e+00 
2.904151420476e+01 1.000000000000e+00 
2.904168092848e+01 1.000000000000e+00 
2.904184765219e+01 1.000000000000e+00 
2.904201437590e+01 1.000000000000e+00 
3.000000000000e+01 1.000000000000e+00 
3.000000000000e+01 1.000000000000e+00 
3.000000000000e+01 1.000000000000e+00 
3.000000000000e+01 1.000000000000e+00 
3.000000000000e+01 1.000000000000e+00 
3.002500000000e+01 9.876207709446e-01 
3.002500000000e+01 9.876207709446e-01 
3.002500000000e+01 9.876207709446e-01 
3.002500000000e+01 9.876207709446e-01 
3.002500000000e+01 9.876207709446e-01 
3.005000000000e+01 9.697756439369e-01 
3.005000000000e+01 9.697756439369e-01 
3.005000000000e+01 9.697756439369e-01 
3.005000000000e+01 9.697756439369e-01 
3.005000000000e+01 9.697756439369e-01 
3.007500000000e+01 9.507134089444e-01 
3.007500000000e+01 9.507134089444e-01 
3.007500000000e+01 9.507134089444e-01 
3.007500000000e+01 9.507134089444e-01 
3.007500000000e+01 9.507134089444e-01 
3.010000000000e+01 9.315621650298e-01 
3.010000000000e+01 9.315621650298e-01 
3.010000000000e+01 9.315621650298e-01 
3.010000000000e+01 9.315621650298e-01 
3.010000000000e+01 9.315621650298e-01 
3.012500000000e+01 9.128758324042e-01 
3.012500000000e+01 9.128758324042e-01 
3.012500000000e+01 9.128758324042e-01 
3.012500000000e+01 9.128758324042e-01 
3.012500000000e+01 9.128758324042e-01 
3.015000000000e+01 8.949248043380e-01 
3.015000000000e+01 8.949248043380e-01 
3.015000000000e+01 8.949248043380e-01 
3.015000000000e+01 8.949248043380e-01 
3.015000000000e+01 8.949248043380e-01 
3.017500000000e+01 8.778290027968e-01 
3.017500000000e+01 8.778290027968e-01 
3.017500000000e+01 8.778290027968e-01 
3.017500000000e+01 8.778290027968e-01 
3.017500000000e+01 8.778290027968e-01 
3.020000000000e+01 8.616255702900e-01 
3.020000000000e+01 8.616255702900e-01 
3.020000000000e+01 8.616255702900e-01 
3.020000000000e+01 8.616255702900e-01 
3.020000000000e+01 8.616255702900e-01 
3.022500000000e+01 8.463059583920e-01 
3.022500000000e+01 8.463059583920e-01 
3.022500000000e+01 8.463059583920e-01 
3.022500000000e+01 8.463059583920e-01 
3.022500000000e+01 8.463059583920e-01 
3.025000000000e+01 8.318370344398e-01 
3.025000000000e+01 8.318370344398e-01 
3.025000000000e+01 8.318370344398e-01 
3.025000000000e+01 8.318370344398e-01 
3.025000000000e+01 8.318370344398e-01 
3.027500000000e+01 8.181733156316e-01 
3.027500000000e+01 8.181733156316e-01 
3.027500000000e+01 8.181733156316e-01 
3.027500000000e+01 8.181733156316e-01 
3.027500000000e+01 8.181733156316e-01 
3.030000000000e+01 8.052640970350e-01 
3.030000000000e+01 8.052640970350e-01 
3.030000000000e+01 8.052640970350e-01 
3.030000000000e+01 8.052640970350e-01 
3.030000000000e+01 8.052640970350e-01 
3.032500000000e+01 7.930575753856e-01 
3.032500000000e+01 7.930575753856e-01 
3.032500000000e+01 7.930575753856e-01 
3.032500000000e+01 7.930575753856e-01 
3.032500000000e+01 7.930575753856e-01 
3.035000000000e+01 7.815031815402e-01 
3.035000000000e+01 7.815031815402e-01 
3.035000000000e+01 7.815031815402e-01 
3.035000000000e+01 7.815031815402e-01 
3.035000000000e+01 7.815031815402e-01 
3.037500000000e+01 7.705528376764e-01 
3.037500000000e+01 7.705528376764e-01 
3.037500000000e+01 7.705528376764e-01 
3.037500000000e+01 7.705528376764e-01 
3.037500000000e+01 7.705528376764e-01 
3.040000000000e+01 7.601615689674e-01 
3.040000000000e+01 7.601615689674e-01 
3.040000000000e+01 7.601615689674e-01 
3.040000000000e+01 7.601615689674e-01 
3.040000000000e+01 7.601615689674e-01 
3.042500000000e+01 7.502877306002e-01 
3.042500000000e+01 7.502877306002e-01 
3.042500000000e+01 7.502877306002e-01 
3.042500000000e+01 7.502877306002e-01 
3.042500000000e+01 7.502877306002e-01 
3.045000000000e+01 7.408930096824e-01 
3.045000000000e+01 7.408930096824e-01 
3.045000000000e+01 7.408930096824e-01 
3.045000000000e+01 7.408930096824e-01 
3.045000000000e+01 7.408930096824e-01 
3.047500000000e+01 7.319422999608e-01 
3.047500000000e+01 7.319422999608e-01 
3.047500000000e+01 7.319422999608e-01 
3.047500000000e+01 7.319422999608e-01 
3.047500000000e+01 7.319422999608e-01 
3.050000000000e+01 7.234035093991e-01 
3.050000000000e+01 7.234035093991e-01 
3.050000000000e+01 7.234035093991e-01 
3.050000000000e+01 7.234035093991e-01 
3.050000000000e+01 7.234035093991e-01 
3.052500000000e+01 7.152473371957e-01 
3.052500000000e+01 7.152473371957e-01 
3.052500000000e+01 7.152473371957e-01 
3.052500000000e+01 7.152473371957e-01 
3.052500000000e+01 7.152473371957e-01 
3.055000000000e+01 7.074470422112e-01 
3.055000000000e+01 7.074470422112e-01 
3.055000000000e+01 7.074470422112e-01 
3.055000000000e+01 7.074470422112e-01 
3.055000000000e+01 7.074470422112e-01 
3.057500000000e+01 6.999782156504e-01 
3.057500000000e+01 6.999782156504e-01 
3.057500000000e+01 6.999782156504e-01 
3.057500000000e+01 6.999782156504e-01 
3.057500000000e+01 6.999782156504e-01 
3.060000000000e+01 6.928185651596e-01 
3.060000000000e+01 6.928185651596e-01 
3.060000000000e+01 6.928185651596e-01 
3.060000000000e+01 6.928185651596e-01 
3.060000000000e+01 6.928185651596e-01 
3.062500000000e+01 6.859477139679e-01 
3.062500000000e+01 6.859477139679e-01 
3.062500000000e+01 6.859477139679e-01 
3.062500000000e+01 6.859477139679e-01 
3.062500000000e+01 6.859477139679e-01 
3.065000000000e+01 6.793470165436e-01 
3.065000000000e+01 6.793470165436e-01 
3.065000000000e+01 6.793470165436e-01 
3.065000000000e+01 6.793470165436e-01 
3.065000000000e+01 6.793470165436e-01 
3.067500000000e+01 6.729993909360e-01 
3.067500000000e+01 6.729993909360e-01 
3.067500000000e+01 6.729993909360e-01 
3.067500000000e+01 6.729993909360e-01 
3.067500000000e+01 6.729993909360e-01 
3.070000000000e+01 6.668891672206e-01 
3.070000000000e+01 6.668891672206e-01 
3.070000000000e+01 6.668891672206e-01 
3.070000000000e+01 6.668891672206e-01 
3.070000000000e+01 6.668891672206e-01 
3.072500000000e+01 6.610019510587e-01 
3.072500000000e+01 6.610019510587e-01 
3.072500000000e+01 6.610019510587e-01 
3.072500000000e+01 6.610019510587e-01 
3.072500000000e+01 6.610019510587e-01 
3.075000000000e+01 6.553245011865e-01 
3.075000000000e+01 6.553245011865e-01 
3.075000000000e+01 6.553245011865e-01 
3.075000000000e+01 6.553245011865e-01 
3.075000000000e+01 6.553245011865e-01 
3.077500000000e+01 6.498446195878e-01 
3.077500000000e+01 6.498446195878e-01 
3.077500000000e+01 6.498446195878e-01 
3.077500000000e+01 6.498446195878e-01 
3.077500000000e+01 6.498446195878e-01 
3.080000000000e+01 6.445510531188e-01 
3.080000000000e+01 6.445510531188e-01 
3.080000000000e+01 6.445510531188e-01 
3.080000000000e+01 6.445510531188e-01 
3.080000000000e+01 6.445510531188e-01 
3.082500000000e+01 6.394334054150e-01 
3.082500000000e+01 6.394334054150e-01 
3.082500000000e+01 6.394334054150e-01 
3.082500000000e+01 6.394334054150e-01 
3.082500000000e+01 6.394334054150e-01 
3.085000000000e+01 6.344820579917e-01 
3.085000000000e+01 6.344820579917e-01 
3.085000000000e+01 6.344820579917e-01 
3.085000000000e+01 6.344820579917e-01 
3.085000000000e+01 6.344820579917e-01 
3.087500000000e+01 6.296880995462e-01 
3.087500000000e+01 6.296880995462e-01 
3.087500000000e+01 6.296880995462e-01 
3.087500000000e+01 6.296880995462e-01 
3.087500000000e+01 6.296880995462e-01 
3.090000000000e+01 6.250432625624e-01 
3.090000000000e+01 6.250432625624e-01 
3.090000000000e+01 6.250432625624e-01 
3.090000000000e+01 6.250432625624e-01 
3.090000000000e+01 6.250432625624e-01 
3.092500000000e+01 6.205398664126e-01 
3.092500000000e+01 6.205398664126e-01 
3.092500000000e+01 6.205398664126e-01 
3.092500000000e+01 6.205398664126e-01 
3.092500000000e+01 6.205398664126e-01 
3.095000000000e+01 6.161707662369e-01 
3.095000000000e+01 6.161707662369e-01 
3.095000000000e+01 6.161707662369e-01 
3.095000000000e+01 6.161707662369e-01 
3.095000000000e+01 6.161707662369e-01 
3.097500000000e+01 6.119293069613e-01 
3.097500000000e+01 6.119293069613e-01 
3.097500000000e+01 6.119293069613e-01 
3.097500000000e+01 6.119293069613e-01 
3.097500000000e+01 6.119293069613e-01 
3.100000000000e+01 6.078092818871e-01 
3.100000000000e+01 6.078092818871e-01 
3.100000000000e+01 6.078092818871e-01 
3.100000000000e+01 6.078092818871e-01 
3.100000000000e+01 6.078092818871e-01 
3.102500000000e+01 6.038048953494e-01 
3.102500000000e+01 6.038048953494e-01 
3.102500000000e+01 6.038048953494e-01 
3.102500000000e+01 6.038048953494e-01 
3.102500000000e+01 6.038048953494e-01 
3.105000000000e+01 5.999107290013e-01 
3.105000000000e+01 5.999107290013e-01 
3.105000000000e+01 5.999107290013e-01 
3.105000000000e+01 5.999107290013e-01 
3.105000000000e+01 5.999107290013e-01 
3.107500000000e+01 5.961217113309e-01 
3.107500000000e+01 5.961217113309e-01 
3.107500000000e+01 5.961217113309e-01 
3.107500000000e+01 5.961217113309e-01 
3.107500000000e+01 5.961217113309e-01 
3.110000000000e+01 5.924330900627e-01 
3.110000000000e+01 5.924330900627e-01 
3.110000000000e+01 5.924330900627e-01 
3.110000000000e+01 5.924330900627e-01 
3.110000000000e+01 5.924330900627e-01 
3.112500000000e+01 5.888404071392e-01 
3.112500000000e+01 5.888404071392e-01 
3.112500000000e+01 5.888404071392e-01 
3.112500000000e+01 5.888404071392e-01 
3.112500000000e+01 5.888404071392e-01 
3.115000000000e+01 5.853394760078e-01 
3.115000000000e+01 5.853394760078e-01 
3.115000000000e+01 5.853394760078e-01 
3.115000000000e+01 5.853394760078e-01 
3.115000000000e+01 5.853394760078e-01 
3.117500000000e+01 5.819263609758e-01 
3.117500000000e+01 5.819263609758e-01 
3.117500000000e+01 5.819263609758e-01 
3.117500000000e+01 5.819263609758e-01 
3.117500000000e+01 5.819263609758e-01 
3.120000000000e+01 5.785973584173e-01 
3.120000000000e+01 5.785973584173e-01 
3.120000000000e+01 5.785973584173e-01 
3.120000000000e+01 5.785973584173e-01 
3.120000000000e+01 5.785973584173e-01 
3.122500000000e+01 5.753489796460e-01 
3.122500000000e+01 5.753489796460e-01 
3.122500000000e+01 5.753489796460e-01 
3.122500000000e+01 5.753489796460e-01 
3.122500000000e+01 5.753489796460e-01 
3.125000000000e+01 5.721779352840e-01 
3.125000000000e+01 5.721779352840e-01 
3.125000000000e+01 5.721779352840e-01 
3.125000000000e+01 5.721779352840e-01 
3.125000000000e+01 5.721779352840e-01 
3.127500000000e+01 5.690811209785e-01 
3.127500000000e+01 5.690811209785e-01 
3.127500000000e+01 5.690811209785e-01 
3.127500000000e+01 5.690811209785e-01 
3.127500000000e+01 5.690811209785e-01 
3.130000000000e+01 5.660556043336e-01 
3.130000000000e+01 5.660556043336e-01 
3.130000000000e+01 5.660556043336e-01 
3.130000000000e+01 5.660556043336e-01 
3.130000000000e+01 5.660556043336e-01 
3.132500000000e+01 5.630986129391e-01 
3.132500000000e+01 5.630986129391e-01 
3.132500000000e+01 5.630986129391e-01 
3.132500000000e+01 5.630986129391e-01 
3.132500000000e+01 5.630986129391e-01 
3.135000000000e+01 5.602075233904e-01 
3.135000000000e+01 5.602075233904e-01 
3.135000000000e+01 5.602075233904e-01 
3.135000000000e+01 5.602075233904e-01 
3.135000000000e+01 5.602075233904e-01 
3.137500000000e+01 5.573798512060e-01 
3.137500000000e+01 5.573798512060e-01 
3.137500000000e+01 5.573798512060e-01 
3.137500000000e+01 5.573798512060e-01 
3.137500000000e+01 5.573798512060e-01 
3.140000000000e+01 5.546132415581e-01 
3.140000000000e+01 5.546132415581e-01 
3.140000000000e+01 5.546132415581e-01 
3.140000000000e+01 5.546132415581e-01 
3.140000000000e+01 5.546132415581e-01 
3.142500000000e+01 5.519054607414e-01 
3.142500000000e+01 5.519054607414e-01 
3.142500000000e+01 5.519054607414e-01 
3.142500000000e+01 5.519054607414e-01 
3.142500000000e+01 5.519054607414e-01 
3.145000000000e+01 5.492543883110e-01 
3.145000000000e+01 5.492543883110e-01 
3.145000000000e+01 5.492543883110e-01 
3.145000000000e+01 5.492543883110e-01 
3.145000000000e+01 5.492543883110e-01 
3.147500000000e+01 5.466580098318e-01 
3.147500000000e+01 5.466580098318e-01 
3.147500000000e+01 5.466580098318e-01 
3.147500000000e+01 5.466580098318e-01 
3.147500000000e+01 5.466580098318e-01 
3.150000000000e+01 5.441144101810e-01 
3.150000000000e+01 5.441144101810e-01 
3.150000000000e+01 5.441144101810e-01 
3.150000000000e+01 5.441144101810e-01 
3.150000000000e+01 5.441144101810e-01 
3.152500000000e+01 5.416217673588e-01 
3.152500000000e+01 5.416217673588e-01 
3.152500000000e+01 5.416217673588e-01 
3.152500000000e+01 5.416217673588e-01 
3.152500000000e+01 5.416217673588e-01 
3.155000000000e+01 5.391783467591e-01 
3.155000000000e+01 5.391783467591e-01 
3.155000000000e+01 5.391783467591e-01 
3.155000000000e+01 5.391783467591e-01 
3.155000000000e+01 5.391783467591e-01 
3.157500000000e+01 5.367824958643e-01 
3.157500000000e+01 5.367824958643e-01 
3.157500000000e+01 5.367824958643e-01 
3.157500000000e+01 5.367824958643e-01 
3.157500000000e+01 5.367824958643e-01 
3.160000000000e+01 5.344326393247e-01 
3.160000000000e+01 5.344326393247e-01 
3.160000000000e+01 5.344326393247e-01 
3.160000000000e+01 5.344326393247e-01 
3.160000000000e+01 5.344326393247e-01 
3.162500000000e+01 5.321272743928e-01 
3.162500000000e+01 5.321272743928e-01 
3.162500000000e+01 5.321272743928e-01 
3.162500000000e+01 5.321272743928e-01 
3.162500000000e+01 5.321272743928e-01 
3.165000000000e+01 5.298649666811e-01 
3.165000000000e+01 5.298649666811e-01 
3.165000000000e+01 5.298649666811e-01 
3.165000000000e+01 5.298649666811e-01 
3.165000000000e+01 5.298649666811e-01 
3.167500000000e+01 5.276443462180e-01 
3.167500000000e+01 5.276443462180e-01 
3.167500000000e+01 5.276443462180e-01 
3.167500000000e+01 5.276443462180e-01 
3.167500000000e+01 5.276443462180e-01 
3.170000000000e+01 5.254641037767e-01 
3.170000000000e+01 5.254641037767e-01 
3.170000000000e+01 5.254641037767e-01 
3.170000000000e+01 5.254641037767e-01 
3.170000000000e+01 5.254641037767e-01 
3.172500000000e+01 5.233229874560e-01 
3.172500000000e+01 5.233229874560e-01 
3.172500000000e+01 5.233229874560e-01 
3.172500000000e+01 5.233229874560e-01 
3.172500000000e+01 5.233229874560e-01 
3.175000000000e+01 5.212197994921e-01 
3.175000000000e+01 5.212197994921e-01 
3.175000000000e+01 5.212197994921e-01 
3.175000000000e+01 5.212197994921e-01 
3.175000000000e+01 5.212197994921e-01 
3.177500000000e+01 5.191533932842e-01 
3.177500000000e+01 5.191533932842e-01 
3.177500000000e+01 5.191533932842e-01 
3.177500000000e+01 5.191533932842e-01 
3.177500000000e+01 5.191533932842e-01 
3.180000000000e+01 5.171226706164e-01 
3.180000000000e+01 5.171226706164e-01 
3.180000000000e+01 5.171226706164e-01 
3.180000000000e+01 5.171226706164e-01 
3.180000000000e+01 5.171226706164e-01 
3.182500000000e+01 5.151265790614e-01 
3.182500000000e+01 5.151265790614e-01 
3.182500000000e+01 5.151265790614e-01 
3.182500000000e+01 5.151265790614e-01 
3.182500000000e+01 5.151265790614e-01 
3.185000000000e+01 5.131641095520e-01 
3.185000000000e+01 5.131641095520e-01 
3.185000000000e+01 5.131641095520e-01 
3.185000000000e+01 5.131641095520e-01 
3.185000000000e+01 5.131641095520e-01 
3.187500000000e+01 5.112342941078e-01 
3.187500000000e+01 5.112342941078e-01 
3.187500000000e+01 5.112342941078e-01 
3.187500000000e+01 5.112342941078e-01 
3.187500000000e+01 5.112342941078e-01 
3.190000000000e+01 5.093362037054e-01 
3.190000000000e+01 5.093362037054e-01 
3.190000000000e+01 5.093362037054e-01 
3.190000000000e+01 5.093362037054e-01 
3.190000000000e+01 5.093362037054e-01 
3.192500000000e+01 5.074689462822e-01 
3.192500000000e+01 5.074689462822e-01 
3.192500000000e+01 5.074689462822e-01 
3.192500000000e+01 5.074689462822e-01 
3.192500000000e+01 5.074689462822e-01 
3.195000000000e+01 5.056316648631e-01 
3.195000000000e+01 5.056316648631e-01 
3.195000000000e+01 5.056316648631e-01 
3.195000000000e+01 5.056316648631e-01 
3.195000000000e+01 5.056316648631e-01 
3.197500000000e+01 5.038235358020e-01 
3.197500000000e+01 5.038235358020e-01 
3.197500000000e+01 5.038235358020e-01 
3.197500000000e+01 5.038235358020e-01 
3.197500000000e+01 5.038235358020e-01 
3.200000000000e+01 5.014336731075e-01 
3.200000000000e+01 5.014361926627e-01 
3.200000000000e+01 5.014374509964e-01 
3.200000000000e+01 5.014349333661e-01 
3.200000000000e+01 5.014387083664e-01 
3.284808488630e+01 4.535776782907e-01 
3.284908522859e+01 4.535312579475e-01 
3.285008557087e+01 4.534848577028e-01 
3.285108591315e+01 4.534384775419e-01 
3.285208625544e+01 4.533921174502e-01 
3.369616977260e+01 4.216309907527e-01 
3.369817045717e+01 4.215659683610e-01 
3.370017114174e+01 4.215009915126e-01 
3.370217182630e+01 4.214360601523e-01 
3.370417251087e+01 4.213711742250e-01 
3.454425465890e+01 3.979002371436e-01 
3.454725568576e+01 3.978260204718e-01 
3.455025671261e+01 3.977518677531e-01 
3.455325773946e+01 3.976777788916e-01 
3.455625876631e+01 3.976037537916e-01 
3.539233954521e+01 3.793001013832e-01 
3.539634091434e+01 3.792211138770e-01 
3.540034228347e+01 3.791422031609e-01 
3.540434365261e+01 3.790633691049e-01 
3.540834502174e+01 3.789846115790e-01 
3.624042443151e+01 3.641529196755e-01 
3.624542614293e+01 3.640714566879e-01 
3.625042785434e+01 3.639900794751e-01 
3.625542956576e+01 3.639087878794e-01 
3.626043127718e+01 3.638275817439e-01 
 TITLE = "Profiles along polylines"
 VARIABLES = "DIST" "SATURATION1" 
 ZONE T="TIME=1.797693134862e+308"
1.240424431508e+00 1.000000000000e+00 
1.245426142925e+00 1.000000000000e+00 
1.250427854343e+00 1.000000000000e+00 
1.255429565760e+00 1.000000000000e+00 
1.260431277177e+00 1.000000000000e+00 
2.199076950458e+00 1.000000000000e+00 
2.203911938161e+00 1.000000000000e+00 
2.208746925864e+00 1.000000000000e+00 
2.213581913568e+00 1.000000000000e+00 
2.218416901271e+00 1.000000000000e+00 
3.157729469407e+00 1.000000000000e+00 
3.162397733396e+00 1.000000000000e+00 
3.167065997386e+00 1.000000000000e+00 
3.171734261375e+00 1.000000000000e+00 
3.176402525365e+00 1.000000000000e+00 
4.116381988357e+00 1.000000000000e+00 
4.120883528632e+00 1.000000000000e+00 
4.125385068908e+00 1.000000000000e+00 
4.129886609184e+00 1.000000000000e+00 
4.134388149459e+00 1.000000000000e+00 
5.075034507307e+00 1.000000000000e+00 
5.079369323868e+00 1.000000000000e+00 
5.083704140430e+00 1.000000000000e+00 
5.088038956992e+00 1.000000000000e+00 
5.092373773554e+00 1.000000000000e+00 
6.033687026256e+00 1.000000000000e+00 
6.037855119103e+00 1.000000000000e+00 
6.042023211951e+00 1.000000000000e+00 
6.046191304799e+00 1.000000000000e+00 
6.050359397647e+00 1.000000000000e+00 
6.992339545205e+00 1.000000000000e+00 
6.996340914338e+00 1.000000000000e+00 
7.000342283472e+00 1.000000000000e+00 
7.004343652606e+00 1.000000000000e+00 
7.008345021740e+00 1.000000000000e+00 
7.950992064154e+00 1.000000000000e+00 
7.954826709574e+00 1.000000000000e+00 
7.958661354993e+00 1.000000000000e+00 
7.962496000413e+00 1.000000000000e+00 
7.966330645833e+00 1.000000000000e+00 
8.909644583102e+00 1.000000000000e+00 
8.913312504808e+00 1.000000000000e+00 
8.916980426515e+00 1.000000000000e+00 
8.920648348221e+00 1.000000000000e+00 
8.924316269927e+00 1.000000000000e+00 
9.868297102049e+00 1.000000000000e+00 
9.871798300041e+00 1.000000000000e+00 
9.875299498033e+00 1.000000000000e+00 
9.878800696025e+00 1.000000000000e+00 
9.882301894018e+00 1.000000000000e+00 
1.082694962100e+01 1.000000000000e+00 
1.083028409527e+01 1.000000000000e+00 
1.083361856955e+01 1.000000000000e+00 
1.083695304383e+01 1.000000000000e+00 
1.084028751811e+01 1.000000000000e+00 
1.178560213994e+01 1.000000000000e+00 
1.178876989051e+01 1.000000000000e+00 
1.179193764107e+01 1.000000000000e+00 
1.179510539163e+01 1.000000000000e+00 
1.179827314220e+01 1.000000000000e+00 
1.274425465889e+01 1.000000000000e+00 
1.274725568574e+01 1.000000000000e+00 
1.275025671259e+01 1.000000000000e+00 
1.275325773944e+01 1.000000000000e+00 
1.275625876629e+01 1.000000000000e+00 
1.370290717783e+01 1.000000000000e+00 
1.370574148097e+01 1.000000000000e+00 
1.370857578411e+01 1.000000000000e+00 
1.371141008724e+01 1.000000000000e+00 
1.371424439038e+01 1.000000000000e+00 
1.466155969678e+01 1.000000000000e+00 
1.466422727620e+01 1.000000000000e+00 
1.466689485563e+01 1.000000000000e+00 
1.466956243505e+01 1.000000000000e+00 
1.467223001447e+01 1.000000000000e+00 
1.562021221573e+01 1.000000000000e+00 
1.562271307144e+01 1.000000000000e+00 
1.562521392714e+01 1.000000000000e+00 
1.562771478285e+01 1.000000000000e+00 
1.563021563856e+01 1.000000000000e+00 
1.657886473468e+01 1.000000000000e+00 
1.658119886667e+01 1.000000000000e+00 
1.658353299867e+01 1.000000000000e+00 
1.658586713066e+01 1.000000000000e+00 
1.658820126266e+01 1.000000000000e+00 
1.753751725363e+01 1.000000000000e+00 
1.753968466191e+01 1.000000000000e+00 
1.754185207019e+01 1.000000000000e+00 
1.754401947847e+01 1.000000000000e+00 
1.754618688675e+01 1.000000000000e+00 
1.849616977258e+01 1.000000000000e+00 
1.849817045715e+01 1.000000000000e+00 
1.850017114172e+01 1.000000000000e+00 
1.850217182628e+01 1.000000000000e+00 
1.850417251085e+01 1.000000000000e+00 
1.945482229153e+01 1.000000000000e+00 
1.945665625239e+01 1.000000000000e+00 
1.945849021324e+01 1.000000000000e+00 
1.946032417409e+01 1.000000000000e+00 
1.946215813495e+01 1.000000000000e+00 
2.041347481048e+01 1.000000000000e+00 
2.041514204762e+01 1.000000000000e+00 
2.041680928476e+01 1.000000000000e+00 
2.041847652190e+01 1.000000000000e+00 
2.042014375904e+01 1.000000000000e+00 
2.137212732944e+01 1.000000000000e+00 
2.137362784286e+01 1.000000000000e+00 
2.137512835629e+01 1.000000000000e+00 
2.137662886971e+01 1.000000000000e+00 
2.137812938314e+01 1.000000000000e+00 
2.233077984839e+01 1.000000000000e+00 
2.233211363810e+01 1.000000000000e+00 
2.233344742781e+01 1.000000000000e+00 
2.233478121752e+01 1.000000000000e+00 
2.233611500723e+01 1.000000000000e+00 
2.328943236734e+01 1.000000000000e+00 
2.329059943334e+01 1.000000000000e+00 
2.329176649933e+01 1.000000000000e+00 
2.329293356533e+01 1.000000000000e+00 
2.329410063133e+01 1.000000000000e+00 
2.424808488629e+01 1.000000000000e+00 
2.424908522857e+01 1.000000000000e+00 
2.425008557086e+01 1.000000000000e+00 
2.425108591314e+01 1.000000000000e+00 
2.425208625542e+01 1.000000000000e+00 
2.520673740524e+01 1.000000000000e+00 
2.520757102381e+01 1.000000000000e+00 
2.520840464238e+01 1.000000000000e+00 
2.520923826095e+01 1.000000000000e+00 
2.521007187952e+01 1.000000000000e+00 
2.616538992419e+01 1.000000000000e+00 
2.616605681905e+01 1.000000000000e+00 
2.616672371391e+01 1.000000000000e+00 
2.616739060876e+01 1.000000000000e+00 
2.616805750362e+01 1.000000000000e+00 
2.712404244315e+01 1.000000000000e+00 
2.712454261429e+01 1.000000000000e+00 
2.712504278543e+01 1.000000000000e+00 
2.712554295657e+01 1.000000000000e+00 
2.712604312771e+01 1.000000000000e+00 
2.808269496210e+01 1.000000000000e+00 
2.808302840952e+01 1.000000000000e+00 
2.808336185695e+01 1.000000000000e+00 
2.808369530438e+01 1.000000000000e+00 
2.808402875181e+01 1.000000000000e+00 
2.904134748105e+01 1.000000000000e+00 
2.904151420476e+01 1.000000000000e+00 
2.904168092848e+01 1.000000000000e+00 
2.904184765219e+01 1.000000000000e+00 
2.904201437590e+01 1.000000000000e+00 
3.000000000000e+01 1.000000000000e+00 
3.000000000000e+01 1.000000000000e+00 
3.000000000000e+01 1.000000000000e+00 
3.000000000000e+01 1.000000000000e+00 
3.000000000000e+01 1.000000000000e+00 
3.002500000000e+01 1.000000000000e+00 
3.002500000000e+01 1.000000000000e+00 
3.002500000000e+01 1.000000000000e+00 
3.002500000000e+01 1.000000000000e+00 
3.002500000000e+01 1.000000000000e+00 
3.005000000000e+01 1.000000000000e+00 
3.005000000000e+01 1.000000000000e+00 
3.005000000000e+01 1.000000000000e+00 
3.005000000000e+01 1.000000000000e+00 
3.005000000000e+01 1.000000000000e+00 
3.007500000000e+01 1.000000000000e+00 
3.007500000000e+01 1.000000000000e+00 
3.007500000000e+01 1.000000000000e+00 
3.007500000000e+01 1.000000000000e+00 
3.007500000000e+01 1.000000000000e+00 
3.010000000000e+01 1.000000000000e+00 
3.010000000000e+01 1.000000000000e+00 
3.010000000000e+01 1.000000000000e+00 
3.010000000000e+01 1.000000000000e+00 
3.010000000000e+01 1.000000000000e+00 
3.012500000000e+01 1.000000000000e+00 
3.012500000000e+01 1.000000000000e+00 
3.012500000000e+01 1.000000000000e+00 
3.012500000000e+01 1.000000000000e+00 
3.012500000000e+01 1.000000000000e+00 
3.015000000000e+01 1.000000000000e+00 
3.015000000000e+01 1.000000000000e+00 
3.015000000000e+01 1.000000000000e+00 