 TITLE = "Profiles along polylines"
 VARIABLES = "DIST" "SATURATION1" 
 ZONE T="TIME=0.000000000000e+00"
1.590544230724e+00 1.000000000000e+00 
1.595545942142e+00 1.000000000000e+00 
1.600547653559e+00 1.000000000000e+00 
1.605549364977e+00 1.000000000000e+00 
1.610551076394e+00 1.000000000000e+00 
2.537526089700e+00 1.000000000000e+00 
2.542361077403e+00 1.000000000000e+00 
2.547196065107e+00 1.000000000000e+00 
2.552031052810e+00 1.000000000000e+00 
2.556866040514e+00 1.000000000000e+00 
3.484507948675e+00 1.000000000000e+00 
3.489176212665e+00 1.000000000000e+00 
3.493844476654e+00 1.000000000000e+00 
3.498512740644e+00 1.000000000000e+00 
3.503181004634e+00 1.000000000000e+00 
4.431489807652e+00 1.000000000000e+00 
4.435991347927e+00 1.000000000000e+00 
4.440492888203e+00 1.000000000000e+00 
4.444994428479e+00 1.000000000000e+00 
4.449495968754e+00 1.000000000000e+00 
5.378471666628e+00 1.000000000000e+00 
5.382806483189e+00 1.000000000000e+00 
5.387141299751e+00 1.000000000000e+00 
5.391476116313e+00 1.000000000000e+00 
5.395810932875e+00 1.000000000000e+00 
6.325453525603e+00 1.000000000000e+00 
6.329621618450e+00 1.000000000000e+00 
6.333789711298e+00 1.000000000000e+00 
6.337957804146e+00 1.000000000000e+00 
6.342125896994e+00 1.000000000000e+00 
7.272435384578e+00 1.000000000000e+00 
7.276436753712e+00 1.000000000000e+00 
7.280438122846e+00 1.000000000000e+00 
7.284439491979e+00 1.000000000000e+00 
7.288440861113e+00 1.000000000000e+00 
8.219417243553e+00 1.000000000000e+00 
8.223251888973e+00 1.000000000000e+00 
8.227086534393e+00 1.000000000000e+00 
8.230921179813e+00 1.000000000000e+00 
8.234755825233e+00 1.000000000000e+00 
9.166399102528e+00 1.000000000000e+00 
9.170067024234e+00 1.000000000000e+00 
9.173734945940e+00 1.000000000000e+00 
9.177402867646e+00 1.000000000000e+00 
9.181070789352e+00 1.000000000000e+00 
1.011338096150e+01 1.000000000000e+00 
1.011688215949e+01 1.000000000000e+00 
1.012038335749e+01 1.000000000000e+00 
1.012388455548e+01 1.000000000000e+00 
1.012738575347e+01 1.000000000000e+00 
1.106036282047e+01 1.000000000000e+00 
1.106369729475e+01 1.000000000000e+00 
1.106703176903e+01 1.000000000000e+00 
1.107036624331e+01 1.000000000000e+00 
1.107370071759e+01 1.000000000000e+00 
1.200734467945e+01 1.000000000000e+00 
1.201051243001e+01 1.000000000000e+00 
1.201368018057e+01 1.000000000000e+00 
1.201684793114e+01 1.000000000000e+00 
1.202001568170e+01 1.000000000000e+00 
1.295432653842e+01 1.000000000000e+00 
1.295732756527e+01 1.000000000000e+00 
1.296032859212e+01 1.000000000000e+00 
1.296332961897e+01 1.000000000000e+00 
1.296633064582e+01 1.000000000000e+00 
1.390130839739e+01 1.000000000000e+00 
1.390414270053e+01 1.000000000000e+00 
1.390697700366e+01 1.000000000000e+00 
1.390981130680e+01 1.000000000000e+00 
1.391264560994e+01 1.000000000000e+00 
1.484829025636e+01 1.000000000000e+00 
1.485095783579e+01 1.000000000000e+00 
1.485362541521e+01 1.000000000000e+00 
1.485629299463e+01 1.000000000000e+00 
1.485896057405e+01 1.000000000000e+00 
1.579527211534e+01 1.000000000000e+00 
1.579777297105e+01 1.000000000000e+00 
1.580027382675e+01 1.000000000000e+00 
1.580277468246e+01 1.000000000000e+00 
1.580527553817e+01 1.000000000000e+00 
1.674225397431e+01 1.000000000000e+00 
1.674458810631e+01 1.000000000000e+00 
1.674692223830e+01 1.000000000000e+00 
1.674925637030e+01 1.000000000000e+00 
1.675159050229e+01 1.000000000000e+00 
1.768923583329e+01 1.000000000000e+00 
1.769140324157e+01 1.000000000000e+00 
1.769357064985e+01 1.000000000000e+00 
1.769573805813e+01 1.000000000000e+00 
1.769790546642e+01 1.000000000000e+00 
1.863621769227e+01 1.000000000000e+00 
1.863821837684e+01 1.000000000000e+00 
1.864021906140e+01 1.000000000000e+00 
1.864221974597e+01 1.000000000000e+00 
1.864422043054e+01 1.000000000000e+00 
1.958319955125e+01 1.000000000000e+00 
1.958503351210e+01 1.000000000000e+00 
1.958686747295e+01 1.000000000000e+00 
1.958870143381e+01 1.000000000000e+00 
1.959053539466e+01 1.000000000000e+00 
2.053018141022e+01 1.000000000000e+00 
2.053184864736e+01 1.000000000000e+00 
2.053351588450e+01 1.000000000000e+00 
2.053518312164e+01 1.000000000000e+00 
2.053685035878e+01 1.000000000000e+00 
2.147716326920e+01 1.000000000000e+00 
2.147866378263e+01 1.000000000000e+00 
2.148016429605e+01 1.000000000000e+00 
2.148166480948e+01 1.000000000000e+00 
2.148316532290e+01 1.000000000000e+00 
2.242414512818e+01 1.000000000000e+00 
2.242547891789e+01 1.000000000000e+00 
2.242681270760e+01 1.000000000000e+00 
2.242814649731e+01 1.000000000000e+00 
2.242948028702e+01 1.000000000000e+00 
2.337112698716e+01 1.000000000000e+00 
2.337229405315e+01 1.000000000000e+00 
2.337346111915e+01 1.000000000000e+00 
2.337462818515e+01 1.000000000000e+00 
2.337579525115e+01 1.000000000000e+00 
2.431810884613e+01 1.000000000000e+00 
2.431910918842e+01 1.000000000000e+00 
2.432010953070e+01 1.000000000000e+00 
2.432110987299e+01 1.000000000000e+00 
2.432211021527e+01 1.000000000000e+00 
2.526509070511e+01 1.000000000000e+00 
2.526592432368e+01 1.000000000000e+00 
2.526675794225e+01 1.000000000000e+00 
2.526759156082e+01 1.000000000000e+00 
2.526842517939e+01 1.000000000000e+00 
2.621207256409e+01 1.000000000000e+00 
2.621273945895e+01 1.000000000000e+00 
2.621340635380e+01 1.000000000000e+00 
2.621407324866e+01 1.000000000000e+00 
2.621474014351e+01 1.000000000000e+00 
2.715905442307e+01 1.000000000000e+00 
2.715955459421e+01 1.000000000000e+00 
2.716005476535e+01 1.000000000000e+00 
2.716055493649e+01 1.000000000000e+00 
2.716105510763e+01 1.000000000000e+00 
2.810603628204e+01 1.000000000000e+00 
2.810636972947e+01 1.000000000000e+00 
2.810670317690e+01 1.000000000000e+00 
2.810703662433e+01 1.000000000000e+00 
2.810737007176e+01 1.000000000000e+00 
2.905301814102e+01 1.000000000000e+00 
2.905318486474e+01 1.000000000000e+00 
2.905335158845e+01 1.000000000000e+00 
2.905351831216e+01 1.000000000000e+00 
2.905368503588e+01 1.000000000000e+00 
3.000000000000e+01 1.000000000000e+00 
3.000000000000e+01 1.000000000000e+00 
3.000000000000e+01 1.000000000000e+00 
3.000000000000e+01 1.000000000000e+00 
3.000000000000e+01 1.000000000000e+00 
3.002500000000e+01 9.876207709446e-01 
3.002500000000e+01 9.876207709446e-01 
3.002500000000e+01 9.876207709446e-01 
3.002500000000e+01 9.876207709446e-01 
3.002500000000e+01 9.876207709446e-01 
3.005000000000e+01 9.697756439369e-01 
3.005000000000e+01 9.697756439369e-01 
3.005000000000e+01 9.697756439369e-01 
3.005000000000e+01 9.697756439369e-01 
3.005000000000e+01 9.697756439369e-01 
3.007500000000e+01 9.507134089444e-01 
3.007500000000e+01 9.507134089444e-01 
3.007500000000e+01 9.507134089444e-01 
3.007500000000e+01 9.507134089444e-01 
3.007500000000e+01 9.507134089444e-01 
3.010000000000e+01 9.315621650298e-01 
3.010000000000e+01 9.315621650298e-01 
3.010000000000e+01 9.315621650298e-01 
3.010000000000e+01 9.315621650298e-01 
3.010000000000e+01 9.315621650298e-01 
3.012500000000e+01 9.128758324042e-01 
3.012500000000e+01 9.128758324042e-01 
3.012500000000e+01 9.128758324042e-01 
3.012500000000e+01 9.128758324042e-01 
3.012500000000e+01 9.128758324042e-01 
3.015000000000e+01 8.949248043380e-01 
3.015000000000e+01 8.949248043380e-01 
3.015000000000e+01 8.949248043380e-01 
3.015000000000e+01 8.949248043380e-01 
3.015000000000e+01 8.949248043380e-01 
3.017500000000e+01 8.778290027968e-01 
3.017500000000e+01 8.778290027968e-01 
3.017500000000e+01 8.778290027968e-01 
3.017500000000e+01 8.778290027968e-01 
3.017500000000e+01 8.778290027968e-01 
3.020000000000e+01 8.616255702900e-01 
3.020000000000e+01 8.616255702900e-01 
3.020000000000e+01 8.616255702900e-01 
3.020000000000e+01 8.616255702900e-01 
3.020000000000e+01 8.616255702900e-01 
3.022500000000e+01 8.463059583920e-01 
3.022500000000e+01 8.463059583920e-01 
3.022500000000e+01 8.463059583920e-01 
3.022500000000e+01 8.463059583920e-01 
3.022500000000e+01 8.463059583920e-01 
3.025000000000e+01 8.318370344398e-01 
3.025000000000e+01 8.318370344398e-01 
3.025000000000e+01 8.318370344398e-01 
3.025000000000e+01 8.318370344398e-01 
3.025000000000e+01 8.318370344398e-01 
3.027500000000e+01 8.181733156316e-01 
3.027500000000e+01 8.181733156316e-01 
3.027500000000e+01 8.181733156316e-01 
3.027500000000e+01 8.181733156316e-01 
3.027500000000e+01 8.181733156316e-01 
3.030000000000e+01 8.052640970350e-01 
3.030000000000e+01 8.052640970350e-01 
3.030000000000e+01 8.052640970350e-01 
3.030000000000e+01 8.052640970350e-01 
3.030000000000e+01 8.052640970350e-01 
3.032500000000e+01 7.930575753856e-01 
3.032500000000e+01 7.930575753856e-01 
3.032500000000e+01 7.930575753856e-01 
3.032500000000e+01 7.930575753856e-01 
3.032500000000e+01 7.930575753856e-01 
3.035000000000e+01 7.815031815402e-01 
3.035000000000e+01 7.815031815402e-01 
3.035000000000e+01 7.815031815402e-01 
3.035000000000e+01 7.815031815402e-01 
3.035000000000e+01 7.815031815402e-01 
3.037500000000e+01 7.705528376764e-01 
3.037500000000e+01 7.705528376764e-01 
3.037500000000e+01 7.705528376764e-01 
3.037500000000e+01 7.705528376764e-01 
3.037500000000e+01 7.705528376764e-01 
3.040000000000e+01 7.601615689674e-01 
3.040000000000e+01 7.601615689674e-01 
3.040000000000e+01 7.601615689674e-01 
3.040000000000e+01 7.601615689674e-01 
3.040000000000e+01 7.601615689674e-01 
3.042500000000e+01 7.502877306002e-01 
3.042500000000e+01 7.502877306002e-01 
3.042500000000e+01 7.502877306002e-01 
3.042500000000e+01 7.502877306002e-01 
3.042500000000e+01 7.502877306002e-01 
3.045000000000e+01 7.408930096824e-01 
3.045000000000e+01 7.408930096824e-01 
3.045000000000e+01 7.408930096824e-01 
3.045000000000e+01 7.408930096824e-01 
3.045000000000e+01 7.408930096824e-01 
3.047500000000e+01 7.319422999608e-01 
3.047500000000e+01 7.319422999608e-01 
3.047500000000e+01 7.319422999608e-01 
3.047500000000e+01 7.319422999608e-01 
3.047500000000e+01 7.319422999608e-01 
3.050000000000e+01 7.234035093991e-01 
3.050000000000e+01 7.234035093991e-01 
3.050000000000e+01 7.234035093991e-01 
3.050000000000e+01 7.234035093991e-01 
3.050000000000e+01 7.234035093991e-01 
3.052500000000e+01 7.152473371957e-01 
3.052500000000e+01 7.152473371957e-01 
3.052500000000e+01 7.152473371957e-01 
3.052500000000e+01 7.152473371957e-01 
3.052500000000e+01 7.152473371957e-01 
3.055000000000e+01 7.074470422112e-01 
3.055000000000e+01 7.074470422112e-01 
3.055000000000e+01 7.074470422112e-01 
3.055000000000e+01 7.074470422112e-01 
3.055000000000e+01 7.074470422112e-01 
3.057500000000e+01 6.999782156504e-01 
3.057500000000e+01 6.999782156504e-01 
3.057500000000e+01 6.999782156504e-01 
3.057500000000e+01 6.999782156504e-01 
3.057500000000e+01 6.999782156504e-01 
3.060000000000e+01 6.928185651596e-01 
3.060000000000e+01 6.928185651596e-01 
3.060000000000e+01 6.928185651596e-01 
3.060000000000e+01 6.928185651596e-01 
3.060000000000e+01 6.928185651596e-01 
3.062500000000e+01 6.859477139679e-01 
3.062500000000e+01 6.859477139679e-01 
3.062500000000e+01 6.859477139679e-01 
3.062500000000e+01 6.859477139679e-01 
3.062500000000e+01 6.859477139679e-01 
3.065000000000e+01 6.793470165436e-01 
3.065000000000e+01 6.793470165436e-01 
3.065000000000e+01 6.793470165436e-01 
3.065000000000e+01 6.793470165436e-01 
3.065000000000e+01 6.793470165436e-01 
3.067500000000e+01 6.729993909360e-01 
3.067500000000e+01 6.729993909360e-01 
3.067500000000e+01 6.729993909360e-01 
3.067500000000e+01 6.729993909360e-01 
3.067500000000e+01 6.729993909360e-01 
3.070000000000e+01 6.668891672206e-01 
3.070000000000e+01 6.668891672206e-01 
3.070000000000e+01 6.668891672206e-01 
3.070000000000e+01 6.668891672206e-01 
3.070000000000e+01 6.668891672206e-01 
3.072500000000e+01 6.610019510587e-01 
3.072500000000e+01 6.610019510587e-01 
3.072500000000e+01 6.610019510587e-01 
3.072500000000e+01 6.610019510587e-01 
3.072500000000e+01 6.610019510587e-01 
3.075000000000e+01 6.553245011865e-01 
3.075000000000e+01 6.553245011865e-01 
3.075000000000e+01 6.553245011865e-01 
3.075000000000e+01 6.553245011865e-01 
3.075000000000e+01 6.553245011865e-01 
3.077500000000e+01 6.498446195878e-01 
3.077500000000e+01 6.498446195878e-01 
3.077500000000e+01 6.498446195878e-01 
3.077500000000e+01 6.498446195878e-01 
3.077500000000e+01 6.498446195878e-01 
3.080000000000e+01 6.445510531188e-01 
3.080000000000e+01 6.445510531188e-01 
3.080000000000e+01 6.445510531188e-01 
3.080000000000e+01 6.445510531188e-01 
3.080000000000e+01 6.445510531188e-01 
3.082500000000e+01 6.394334054150e-01 
3.082500000000e+01 6.394334054150e-01 
3.082500000000e+01 6.394334054150e-01 
3.082500000000e+01 6.394334054150e-01 
3.082500000000e+01 6.394334054150e-01 
3.085000000000e+01 6.344820579917e-01 
3.085000000000e+01 6.344820579917e-01 
3.085000000000e+01 6.344820579917e-01 
3.085000000000e+01 6.344820579917e-01 
3.085000000000e+01 6.344820579917e-01 
3.087500000000e+01 6.296880995462e-01 
3.087500000000e+01 6.296880995462e-01 
3.087500000000e+01 6.296880995462e-01 
3.087500000000e+01 6.296880995462e-01 
3.087500000000e+01 6.296880995462e-01 
3.090000000000e+01 6.250432625624e-01 
3.090000000000e+01 6.250432625624e-01 
3.090000000000e+01 6.250432625624e-01 
3.090000000000e+01 6.250432625624e-01 
3.090000000000e+01 6.250432625624e-01 
3.092500000000e+01 6.205398664126e-01 
3.092500000000e+01 6.205398664126e-01 
3.092500000000e+01 6.205398664126e-01 
3.092500000000e+01 6.205398664126e-01 
3.092500000000e+01 6.205398664126e-01 
3.095000000000e+01 6.161707662369e-01 
3.095000000000e+01 6.161707662369e-01 
3.095000000000e+01 6.161707662369e-01 
3.095000000000e+01 6.161707662369e-01 
3.095000000000e+01 6.161707662369e-01 
3.097500000000e+01 6.119293069613e-01 
3.097500000000e+01 6.119293069613e-01 
3.097500000000e+01 6.119293069613e-01 
3.097500000000e+01 6.119293069613e-01 
3.097500000000e+01 6.119293069613e-01 
3.100000000000e+01 6.078092818871e-01 
3.100000000000e+01 6.078092818871e-01 
3.100000000000e+01 6.078092818871e-01 
3.100000000000e+01 6.078092818871e-01 
3.100000000000e+01 6.078092818871e-01 
3.102500000000e+01 6.038048953494e-01 
3.102500000000e+01 6.038048953494e-01 
3.102500000000e+01 6.038048953494e-01 
3.102500000000e+01 6.038048953494e-01 
3.102500000000e+01 6.038048953494e-01 
3.105000000000e+01 5.999107290013e-01 
3.105000000000e+01 5.999107290013e-01 
3.105000000000e+01 5.999107290013e-01 
3.105000000000e+01 5.999107290013e-01 
3.105000000000e+01 5.999107290013e-01 
3.107500000000e+01 5.961217113309e-01 
3.107500000000e+01 5.961217113309e-01 
3.107500000000e+01 5.961217113309e-01 
3.107500000000e+01 5.961217113309e-01 
3.107500000000e+01 5.961217113309e-01 
3.110000000000e+01 5.924330900627e-01 
3.110000000000e+01 5.924330900627e-01 
3.110000000000e+01 5.924330900627e-01 
3.110000000000e+01 5.924330900627e-01 
3.110000000000e+01 5.924330900627e-01 
3.112500000000e+01 5.888404071392e-01 
3.112500000000e+01 5.888404071392e-01 
3.112500000000e+01 5.888404071392e-01 
3.112500000000e+01 5.888404071392e-01 
3.112500000000e+01 5.888404071392e-01 
3.115000000000e+01 5.853394760078e-01 
3.115000000000e+01 5.853394760078e-01 
3.115000000000e+01 5.853394760078e-01 
3.115000000000e+01 5.853394760078e-01 
3.115000000000e+01 5.853394760078e-01 
3.117500000000e+01 5.819263609758e-01 
3.117500000000e+01 5.819263609758e-01 
3.117500000000e+01 5.819263609758e-01 
3.117500000000e+01 5.819263609758e-01 
3.117500000000e+01 5.819263609758e-01 
3.120000000000e+01 5.785973584173e-01 
3.120000000000e+01 5.785973584173e-01 
3.120000000000e+01 5.785973584173e-01 
3.120000000000e+01 5.785973584173e-01 
3.120000000000e+01 5.785973584173e-01 
3.122500000000e+01 5.753489796460e-01 
3.122500000000e+01 5.753489796460e-01 
3.122500000000e+01 5.753489796460e-01 
3.122500000000e+01 5.753489796460e-01 
3.122500000000e+01 5.753489796460e-01 
3.125000000000e+01 5.721779352840e-01 
3.125000000000e+01 5.721779352840e-01 
3.125000000000e+01 5.721779352840e-01 
3.125000000000e+01 5.721779352840e-01 
3.125000000000e+01 5.721779352840e-01 
3.127500000000e+01 5.690811209785e-01 
3.127500000000e+01 5.690811209785e-01 
3.127500000000e+01 5.690811209785e-01 
3.127500000000e+01 5.690811209785e-01 
3.127500000000e+01 5.690811209785e-01 
3.130000000000e+01 5.660556043336e-01 
3.130000000000e+01 5.660556043336e-01 
3.130000000000e+01 5.660556043336e-01 
3.130000000000e+01 5.660556043336e-01 
3.130000000000e+01 5.660556043336e-01 
3.132500000000e+01 5.630986129391e-01 
3.132500000000e+01 5.630986129391e-01 
3.132500000000e+01 5.630986129391e-01 
3.132500000000e+01 5.630986129391e-01 
3.132500000000e+01 5.630986129391e-01 
3.135000000000e+01 5.602075233904e-01 
3.135000000000e+01 5.602075233904e-01 
3.135000000000e+01 5.602075233904e-01 
3.135000000000e+01 5.602075233904e-01 
3.135000000000e+01 5.602075233904e-01 
3.137500000000e+01 5.573798512060e-01 
3.137500000000e+01 5.573798512060e-01 
3.137500000000e+01 5.573798512060e-01 
3.137500000000e+01 5.573798512060e-01 
3.137500000000e+01 5.573798512060e-01 
3.140000000000e+01 5.546132415581e-01 
3.140000000000e+01 5.546132415581e-01 
3.140000000000e+01 5.546132415581e-01 
3.140000000000e+01 5.546132415581e-01 
3.140000000000e+01 5.546132415581e-01 
3.142500000000e+01 5.519054607414e-01 
3.142500000000e+01 5.519054607414e-01 
3.142500000000e+01 5.519054607414e-01 
3.142500000000e+01 5.519054607414e-01 
3.142500000000e+01 5.519054607414e-01 
3.145000000000e+01 5.492543883110e-01 
3.145000000000e+01 5.492543883110e-01 
3.145000000000e+01 5.492543883110e-01 
3.145000000000e+01 5.492543883110e-01 
3.145000000000e+01 5.492543883110e-01 
3.147500000000e+01 5.466580098318e-01 
3.147500000000e+01 5.466580098318e-01 
3.147500000000e+01 5.466580098318e-01 
3.147500000000e+01 5.466580098318e-01 
3.147500000000e+01 5.466580098318e-01 
3.150000000000e+01 5.441144101810e-01 
3.150000000000e+01 5.441144101810e-01 
3.150000000000e+01 5.441144101810e-01 
3.150000000000e+01 5.441144101810e-01 
3.150000000000e+01 5.441144101810e-01 
3.152500000000e+01 5.416217673588e-01 
3.152500000000e+01 5.416217673588e-01 
3.152500000000e+01 5.416217673588e-01 
3.152500000000e+01 5.416217673588e-01 
3.152500000000e+01 5.416217673588e-01 
3.155000000000e+01 5.391783467591e-01 
3.155000000000e+01 5.391783467591e-01 
3.155000000000e+01 5.391783467591e-01 
3.155000000000e+01 5.391783467591e-01 
3.155000000000e+01 5.391783467591e-01 
3.157500000000e+01 5.367824958643e-01 
3.157500000000e+01 5.367824958643e-01 
3.157500000000e+01 5.367824958643e-01 
3.157500000000e+01 5.367824958643e-01 
3.157500000000e+01 5.367824958643e-01 
3.160000000000e+01 5.344326393247e-01 
3.160000000000e+01 5.344326393247e-01 
3.160000000000e+01 5.344326393247e-01 
3.160000000000e+01 5.344326393247e-01 
3.160000000000e+01 5.344326393247e-01 
3.162500000000e+01 5.321272743928e-01 
3.162500000000e+01 5.321272743928e-01 
3.162500000000e+01 5.321272743928e-01 
3.162500000000e+01 5.321272743928e-01 
3.162500000000e+01 5.321272743928e-01 
3.165000000000e+01 5.298649666811e-01 
3.165000000000e+01 5.298649666811e-01 
3.165000000000e+01 5.298649666811e-01 
3.165000000000e+01 5.298649666811e-01 
3.165000000000e+01 5.298649666811e-01 
3.167500000000e+01 5.276443462180e-01 
3.167500000000e+01 5.276443462180e-01 
3.167500000000e+01 5.276443462180e-01 
3.167500000000e+01 5.276443462180e-01 
3.167500000000e+01 5.276443462180e-01 
3.170000000000e+01 5.254641037767e-01 
3.170000000000e+01 5.254641037767e-01 
3.170000000000e+01 5.254641037767e-01 
3.170000000000e+01 5.254641037767e-01 
3.170000000000e+01 5.254641037767e-01 
3.172500000000e+01 5.233229874560e-01 
3.172500000000e+01 5.233229874560e-01 
3.172500000000e+01 5.233229874560e-01 
3.172500000000e+01 5.233229874560e-01 
3.172500000000e+01 5.233229874560e-01 
3.175000000000e+01 5.212197994921e-01 
3.175000000000e+01 5.212197994921e-01 
3.175000000000e+01 5.212197994921e-01 
3.175000000000e+01 5.212197994921e-01 
3.175000000000e+01 5.212197994921e-01 
3.177500000000e+01 5.191533932842e-01 
3.177500000000e+01 5.191533932842e-01 
3.177500000000e+01 5.191533932842e-01 
3.177500000000e+01 5.191533932842e-01 
3.177500000000e+01 5.191533932842e-01 
3.180000000000e+01 5.171226706164e-01 
3.180000000000e+01 5.171226706164e-01 
3.180000000000e+01 5.171226706164e-01 
3.180000000000e+01 5.171226706164e-01 
3.180000000000e+01 5.171226706164e-01 
3.182500000000e+01 5.151265790614e-01 
3.182500000000e+01 5.151265790614e-01 
3.182500000000e+01 5.151265790614e-01 
3.182500000000e+01 5.151265790614e-01 
3.182500000000e+01 5.151265790614e-01 
3.185000000000e+01 5.131641095520e-01 
3.185000000000e+01 5.131641095520e-01 
3.185000000000e+01 5.131641095520e-01 
3.185000000000e+01 5.131641095520e-01 
3.185000000000e+01 5.131641095520e-01 
3.187500000000e+01 5.112342941078e-01 
3.187500000000e+01 5.112342941078e-01 
3.187500000000e+01 5.112342941078e-01 
3.187500000000e+01 5.112342941078e-01 
3.187500000000e+01 5.112342941078e-01 
3.190000000000e+01 5.093362037054e-01 
3.190000000000e+01 5.093362037054e-01 
3.190000000000e+01 5.093362037054e-01 
3.190000000000e+01 5.093362037054e-01 
3.190000000000e+01 5.093362037054e-01 
3.192500000000e+01 5.074689462822e-01 
3.192500000000e+01 5.074689462822e-01 
3.192500000000e+01 5.074689462822e-01 
3.192500000000e+01 5.074689462822e-01 
3.192500000000e+01 5.074689462822e-01 
3.195000000000e+01 5.056316648631e-01 
3.195000000000e+01 5.056316648631e-01 
3.195000000000e+01 5.056316648631e-01 
3.195000000000e+01 5.056316648631e-01 
3.195000000000e+01 5.056316648631e-01 
3.197500000000e+01 5.038235358020e-01 
3.197500000000e+01 5.038235358020e-01 
3.197500000000e+01 5.038235358020e-01 
3.197500000000e+01 5.038235358020e-01 
3.197500000000e+01 5.038235358020e-01 
3.200000000000e+01 5.013431149938e-01 
3.200000000000e+01 5.013457651004e-01 
3.200000000000e+01 5.013470887973e-01 
3.200000000000e+01 5.013444404990e-01 
3.200000000000e+01 5.013484115888e-01 
3.291810884614e+01 4.503760023590e-01 
3.291910918843e+01 4.503309542688e-01 
3.292010953071e+01 4.502859252846e-01 
3.292110987300e+01 4.502409153926e-01 
3.292211021528e+01 4.501959245792e-01 
3.383621769229e+01 4.171864760392e-01 
3.383821837686e+01 4.171245134948e-01 
3.384021906142e+01 4.170625928509e-01 
3.384221974599e+01 4.170007140585e-01 
3.384422043056e+01 4.169388770686e-01 
3.475432653843e+01 3.928544508487e-01 
3.475732756529e+01 3.927844901082e-01 
3.476032859214e+01 3.927145870756e-01 
3.476332961899e+01 3.926447416679e-01 
3.476633064584e+01 3.925749538026e-01 
3.567243538458e+01 3.739495789872e-01 
3.567643675371e+01 3.738756689292e-01 
3.568043812285e+01 3.738018272619e-01 
3.568443949198e+01 3.737280538751e-01 
3.568844086112e+01 3.736543486586e-01 
3.659054423072e+01 3.586493960040e-01 
3.659554594214e+01 3.585735781998e-01 
3.660054765356e+01 3.584978360683e-01 
3.660554936498e+01 3.584221694775e-01 
3.661055107639e+01 3.583465782960e-01 
 TITLE = "Profiles along polylines"
 VARIABLES = "DIST" "SATURATION1" 
 ZONE T="TIME=1.797693134862e+308"
1.590544230724e+00 1.000000000000e+00 
1.595545942142e+00 1.000000000000e+00 
1.600547653559e+00 1.000000000000e+00 
1.605549364977e+00 1.000000000000e+00 
1.610551076394e+00 1.000000000000e+00 
2.537526089700e+00 1.000000000000e+00 
2.542361077403e+00 1.000000000000e+00 
2.547196065107e+00 1.000000000000e+00 
2.552031052810e+00 1.000000000000e+00 
2.556866040514e+00 1.000000000000e+00 
3.484507948675e+00 1.000000000000e+00 
3.489176212665e+00 1.000000000000e+00 
3.493844476654e+00 1.000000000000e+00 
3.498512740644e+00 1.000000000000e+00 
3.503181004634e+00 1.000000000000e+00 
4.431489807652e+00 1.000000000000e+00 
4.435991347927e+00 1.000000000000e+00 
4.440492888203e+00 1.000000000000e+00 
4.444994428479e+00 1.000000000000e+00 
4.449495968754e+00 1.000000000000e+00 
5.378471666628e+00 1.000000000000e+00 
5.382806483189e+00 1.000000000000e+00 
5.387141299751e+00 1.000000000000e+00 
5.391476116313e+00 1.000000000000e+00 
5.395810932875e+00 1.000000000000e+00 
6.325453525603e+00 1.000000000000e+00 
6.329621618450e+00 1.000000000000e+00 
6.333789711298e+00 1.000000000000e+00 
6.337957804146e+00 1.000000000000e+00 
6.342125896994e+00 1.000000000000e+00 
7.272435384578e+00 1.000000000000e+00 
7.276436753712e+00 1.000000000000e+00 
7.280438122846e+00 1.000000000000e+00 
7.284439491979e+00 1.000000000000e+00 
7.288440861113e+00 1.000000000000e+00 
8.219417243553e+00 1.000000000000e+00 
8.223251888973e+00 1.000000000000e+00 
8.227086534393e+00 1.000000000000e+00 
8.230921179813e+00 1.000000000000e+00 
8.234755825233e+00 1.000000000000e+00 
9.166399102528e+00 1.000000000000e+00 
9.170067024234e+00 1.000000000000e+00 
9.173734945940e+00 1.000000000000e+00 
9.177402867646e+00 1.000000000000e+00 
9.181070789352e+00 1.000000000000e+00 
1.011338096150e+01 1.000000000000e+00 
1.011688215949e+01 1.000000000000e+00 
1.012038335749e+01 1.000000000000e+00 
1.012388455548e+01 1.000000000000e+00 
1.012738575347e+01 1.000000000000e+00 
1.106036282047e+01 1.000000000000e+00 
1.106369729475e+01 1.000000000000e+00 
1.106703176903e+01 1.000000000000e+00 
1.107036624331e+01 1.000000000000e+00 
1.107370071759e+01 1.000000000000e+00 
1.200734467945e+01 1.000000000000e+00 
1.201051243001e+01 1.000000000000e+00 
1.201368018057e+01 1.000000000000e+00 
1.201684793114e+01 1.000000000000e+00 
1.202001568170e+01 1.000000000000e+00 
1.295432653842e+01 1.000000000000e+00 
1.295732756527e+01 1.000000000000e+00 
1.296032859212e+01 1.000000000000e+00 
1.296332961897e+01 1.000000000000e+00 
1.296633064582e+01 1.000000000000e+00 
1.390130839739e+01 1.000000000000e+00 
1.390414270053e+01 1.000000000000e+00 
1.390697700366e+01 1.000000000000e+00 
1.390981130680e+01 1.000000000000e+00 
1.391264560994e+01 1.000000000000e+00 
1.484829025636e+01 1.000000000000e+00 
1.485095783579e+01 1.000000000000e+00 
1.485362541521e+01 1.000000000000e+00 
1.485629299463e+01 1.000000000000e+00 
1.485896057405e+01 1.000000000000e+00 
1.579527211534e+01 1.000000000000e+00 
1.579777297105e+01 1.000000000000e+00 
1.580027382675e+01 1.000000000000e+00 
1.580277468246e+01 1.000000000000e+00 
1.580527553817e+01 1.000000000000e+00 
1.674225397431e+01 1.000000000000e+00 
1.674458810631e+01 1.000000000000e+00 
1.674692223830e+01 1.000000000000e+00 
1.674925637030e+01 1.000000000000e+00 
1.675159050229e+01 1.000000000000e+00 
1.768923583329e+01 1.000000000000e+00 
1.769140324157e+01 1.000000000000e+00 
1.769357064985e+01 1.000000000000e+00 
1.769573805813e+01 1.000000000000e+00 
1.769790546642e+01 1.000000000000e+00 
1.863621769227e+01 1.000000000000e+00 
1.863821837684e+01 1.000000000000e+00 
1.864021906140e+01 1.000000000000e+00 
1.864221974597e+01 1.000000000000e+00 
1.864422043054e+01 1.000000000000e+00 
1.958319955125e+01 1.000000000000e+00 
1.958503351210e+01 1.000000000000e+00 
1.958686747295e+01 1.000000000000e+00 
1.958870143381e+01 1.000000000000e+00 
1.959053539466e+01 1.000000000000e+00 
2.053018141022e+01 1.000000000000e+00 
2.053184864736e+01 1.000000000000e+00 
2.053351588450e+01 1.000000000000e+00 
2.053518312164e+01 1.000000000000e+00 
2.053685035878e+01 1.000000000000e+00 
2.147716326920e+01 1.000000000000e+00 
2.147866378263e+01 1.000000000000e+00 
2.148016429605e+01 1.000000000000e+00 
2.148166480948e+01 1.000000000000e+00 
2.148316532290e+01 1.000000000000e+00 
2.242414512818e+01 1.000000000000e+00 
2.242547891789e+01 1.000000000000e+00 
2.242681270760e+01 1.000000000000e+00 
2.242814649731e+01 1.000000000000e+00 
2.242948028702e+01 1.000000000000e+00 
2.337112698716e+01 1.000000000000e+00 
2.337229405315e+01 1.000000000000e+00 
2.337346111915e+01 1.000000000000e+00 
2.337462818515e+01 1.000000000000e+00 
2.337579525115e+01 1.000000000000e+00 
2.431810884613e+01 1.000000000000e+00 
2.431910918842e+01 1.000000000000e+00 
2.432010953070e+01 1.000000000000e+00 
2.432110987299e+01 1.000000000000e+00 
2.432211021527e+01 1.000000000000e+00 
2.526509070511e+01 1.000000000000e+00 
2.526592432368e+01 1.000000000000e+00 
2.526675794225e+01 1.000000000000e+00 
2.526759156082e+01 1.000000000000e+00 
2.526842517939e+01 1.000000000000e+00 
2.621207256409e+01 1.000000000000e+00 
2.621273945895e+01 1.000000000000e+00 
2.621340635380e+01 1.000000000000e+00 
2.621407324866e+01 1.000000000000e+00 
2.621474014351e+01 1.000000000000e+00 
2.715905442307e+01 1.000000000000e+00 
2.715955459421e+01 1.000000000000e+00 
2.716005476535e+01 1.000000000000e+00 
2.716055493649e+01 1.000000000000e+00 
2.716105510763e+01 1.000000000000e+00 
2.810603628204e+01 1.000000000000e+00 
2.810636972947e+01 1.000000000000e+00 
2.810670317690e+01 1.000000000000e+00 
2.810703662433e+01 1.000000000000e+00 
2.810737007176e+01 1.000000000000e+00 
2.905301814102e+01 1.000000000000e+00 
2.905318486474e+01 1.000000000000e+00 
2.905335158845e+01 1.000000000000e+00 
2.905351831216e+01 1.000000000000e+00 
2.905368503588e+01 1.000000000000e+00 
3.000000000000e+01 1.000000000000e+00 
3.000000000000e+01 1.000000000000e+00 
3.000000000000e+01 1.000000000000e+00 
3.000000000000e+01 1.000000000000e+00 
3.000000000000e+01 1.000000000000e+00 
3.002500000000e+01 1.000000000000e+00 
3.002500000000e+01 1.000000000000e+00 
3.002500000000e+01 1.000000000000e+00 
3.002500000000e+01 1.000000000000e+00 
3.002500000000e+01 1.000000000000e+00 
3.005000000000e+01 1.000000000000e+00 
3.005000000000e+01 1.000000000000e+00 
3.005000000000e+01 1.000000000000e+00 
3.005000000000e+01 1.000000000000e+00 
3.005000000000e+01 1.000000000000e+00 
3.007500000000e+01 1.000000000000e+00 
3.007500000000e+01 1.000000000000e+00 
3.007500000000e+01 1.000000000000e+00 
3.007500000000e+01 1.000000000000e+00 
3.007500000000e+01 1.000000000000e+00 
3.010000000000e+01 1.000000000000e+00 
3.010000000000e+01 1.000000000000e+00 
3.010000000000e+01 1.000000000000e+00 
3.010000000000e+01 1.000000000000e+00 
3.010000000000e+01 1.000000000000e+00 
3.012500000000e+01 1.000000000000e+00 
3.012500000000e+01 1.000000000000e+00 
3.012500000000e+01 1.000000000000e+00 
3.012500000000e+01 1.000000000000e+00 
3.012500000000e+01 1.000000000000e+00 
3.015000000000e+01 1.000000000000e+00 
3.015000000000e+01 1.000000000000e+00 
3.015000000000e+01 1.000000000000e+00 