 TITLE = "Profiles along polylines"
 VARIABLES = "DIST" "SATURATION1" 
 ZONE T="TIME=0.000000000000e+00"
1.168513624464e+01 1.000000000000e+00 
1.174504978442e+01 1.000000000000e+00 
1.180496332419e+01 1.000000000000e+00 
1.186487686397e+01 1.000000000000e+00 
1.192479040374e+01 1.000000000000e+00 
1.229563170315e+01 1.000000000000e+00 
1.235354812494e+01 1.000000000000e+00 
1.241146454672e+01 1.000000000000e+00 
1.246938096850e+01 1.000000000000e+00 
1.252729739028e+01 1.000000000000e+00 
1.290612716167e+01 1.000000000000e+00 
1.296204646546e+01 1.000000000000e+00 
1.301796576925e+01 1.000000000000e+00 
1.307388507303e+01 1.000000000000e+00 
1.312980437682e+01 1.000000000000e+00 
1.351662262018e+01 1.000000000000e+00 
1.357054480598e+01 1.000000000000e+00 
1.362446699177e+01 1.000000000000e+00 
1.367838917757e+01 1.000000000000e+00 
1.373231136337e+01 1.000000000000e+00 
1.412711807869e+01 1.000000000000e+00 
1.417904314649e+01 1.000000000000e+00 
1.423096821430e+01 1.000000000000e+00 
1.428289328210e+01 1.000000000000e+00 
1.433481834991e+01 1.000000000000e+00 
1.473761353720e+01 1.000000000000e+00 
1.478754148701e+01 1.000000000000e+00 
1.483746943683e+01 1.000000000000e+00 
1.488739738664e+01 1.000000000000e+00 
1.493732533645e+01 1.000000000000e+00 
1.534810899571e+01 1.000000000000e+00 
1.539603982753e+01 1.000000000000e+00 
1.544397065935e+01 1.000000000000e+00 
1.549190149117e+01 1.000000000000e+00 
1.553983232299e+01 1.000000000000e+00 
1.595860445423e+01 1.000000000000e+00 
1.600453816805e+01 1.000000000000e+00 
1.605047188188e+01 1.000000000000e+00 
1.609640559571e+01 1.000000000000e+00 
1.614233930953e+01 1.000000000000e+00 
1.656909991274e+01 1.000000000000e+00 
1.661303650857e+01 1.000000000000e+00 
1.665697310441e+01 1.000000000000e+00 
1.670090970024e+01 1.000000000000e+00 
1.674484629607e+01 1.000000000000e+00 
1.717959537125e+01 1.000000000000e+00 
1.722153484909e+01 1.000000000000e+00 
1.726347432693e+01 1.000000000000e+00 
1.730541380477e+01 1.000000000000e+00 
1.734735328262e+01 1.000000000000e+00 
1.779009082976e+01 1.000000000000e+00 
1.783003318961e+01 1.000000000000e+00 
1.786997554946e+01 1.000000000000e+00 
1.790991790931e+01 1.000000000000e+00 
1.794986026916e+01 1.000000000000e+00 
1.840058628827e+01 1.000000000000e+00 
1.843853153013e+01 1.000000000000e+00 
1.847647677198e+01 1.000000000000e+00 
1.851442201384e+01 1.000000000000e+00 
1.855236725570e+01 1.000000000000e+00 
1.901108174678e+01 1.000000000000e+00 
1.904702987064e+01 1.000000000000e+00 
1.908297799451e+01 1.000000000000e+00 
1.911892611837e+01 1.000000000000e+00 
1.915487424224e+01 1.000000000000e+00 
1.962157720529e+01 1.000000000000e+00 
1.965552821116e+01 1.000000000000e+00 
1.968947921703e+01 1.000000000000e+00 
1.972343022291e+01 1.000000000000e+00 
1.975738122878e+01 1.000000000000e+00 
2.023207266380e+01 1.000000000000e+00 
2.026402655168e+01 1.000000000000e+00 
2.029598043956e+01 1.000000000000e+00 
2.032793432744e+01 1.000000000000e+00 
2.035988821532e+01 1.000000000000e+00 
2.084256812231e+01 1.000000000000e+00 
2.087252489220e+01 1.000000000000e+00 
2.090248166209e+01 1.000000000000e+00 
2.093243843197e+01 1.000000000000e+00 
2.096239520186e+01 1.000000000000e+00 
2.145306358082e+01 1.000000000000e+00 
2.148102323272e+01 1.000000000000e+00 
2.150898288461e+01 1.000000000000e+00 
2.153694253651e+01 1.000000000000e+00 
2.156490218840e+01 1.000000000000e+00 
2.206355903934e+01 1.000000000000e+00 
2.208952157324e+01 1.000000000000e+00 
2.211548410714e+01 1.000000000000e+00 
2.214144664104e+01 1.000000000000e+00 
2.216740917494e+01 1.000000000000e+00 
2.267405449785e+01 1.000000000000e+00 
2.269801991376e+01 1.000000000000e+00 
2.272198532967e+01 1.000000000000e+00 
2.274595074558e+01 1.000000000000e+00 
2.276991616149e+01 1.000000000000e+00 
2.328454995636e+01 1.000000000000e+00 
2.330651825428e+01 1.000000000000e+00 
2.332848655220e+01 1.000000000000e+00 
2.335045485011e+01 1.000000000000e+00 
2.337242314803e+01 1.000000000000e+00 
2.389504541487e+01 1.000000000000e+00 
2.391501659480e+01 1.000000000000e+00 
2.393498777472e+01 1.000000000000e+00 
2.395495895465e+01 1.000000000000e+00 
2.397493013457e+01 1.000000000000e+00 
2.450554087339e+01 1.000000000000e+00 
2.452351493532e+01 1.000000000000e+00 
2.454148899725e+01 1.000000000000e+00 
2.455946305918e+01 1.000000000000e+00 
2.457743712112e+01 1.000000000000e+00 
2.511603633190e+01 1.000000000000e+00 
2.513201327584e+01 1.000000000000e+00 
2.514799021978e+01 1.000000000000e+00 
2.516396716372e+01 1.000000000000e+00 
2.517994410766e+01 1.000000000000e+00 
2.572653179041e+01 1.000000000000e+00 
2.574051161636e+01 1.000000000000e+00 
2.575449144231e+01 1.000000000000e+00 
2.576847126825e+01 1.000000000000e+00 
2.578245109420e+01 1.000000000000e+00 
2.633702724892e+01 1.000000000000e+00 
2.634900995688e+01 1.000000000000e+00 
2.636099266483e+01 1.000000000000e+00 
2.637297537279e+01 1.000000000000e+00 
2.638495808074e+01 1.000000000000e+00 
2.694752270744e+01 1.000000000000e+00 
2.695750829740e+01 1.000000000000e+00 
2.696749388736e+01 1.000000000000e+00 
2.697747947732e+01 1.000000000000e+00 
2.698746506729e+01 1.000000000000e+00 
2.755801816595e+01 1.000000000000e+00 
2.756600663792e+01 1.000000000000e+00 
2.757399510989e+01 1.000000000000e+00 
2.758198358186e+01 1.000000000000e+00 
2.758997205383e+01 1.000000000000e+00 
2.816851362446e+01 1.000000000000e+00 
2.817450497844e+01 1.000000000000e+00 
2.818049633242e+01 1.000000000000e+00 
2.818648768639e+01 1.000000000000e+00 
2.819247904037e+01 1.000000000000e+00 
2.877900908297e+01 1.000000000000e+00 
2.878300331896e+01 1.000000000000e+00 
2.878699755494e+01 1.000000000000e+00 
2.879099179093e+01 1.000000000000e+00 
2.879498602691e+01 1.000000000000e+00 
2.938950454149e+01 1.000000000000e+00 
2.939150165948e+01 1.000000000000e+00 
2.939349877747e+01 1.000000000000e+00 
2.939549589546e+01 1.000000000000e+00 
2.939749301346e+01 1.000000000000e+00 
3.000000000000e+01 1.000000000000e+00 
3.000000000000e+01 1.000000000000e+00 
3.000000000000e+01 1.000000000000e+00 
3.000000000000e+01 1.000000000000e+00 
3.000000000000e+01 1.000000000000e+00 
3.002500000000e+01 9.876207709446e-01 
3.002500000000e+01 9.876207709446e-01 
3.002500000000e+01 9.876207709446e-01 
3.002500000000e+01 9.876207709446e-01 
3.002500000000e+01 9.876207709446e-01 
3.005000000000e+01 9.697756439369e-01 
3.005000000000e+01 9.697756439369e-01 
3.005000000000e+01 9.697756439369e-01 
3.005000000000e+01 9.697756439369e-01 
3.005000000000e+01 9.697756439369e-01 
3.007500000000e+01 9.507134089444e-01 
3.007500000000e+01 9.507134089444e-01 
3.007500000000e+01 9.507134089444e-01 
3.007500000000e+01 9.507134089444e-01 
3.007500000000e+01 9.507134089444e-01 
3.010000000000e+01 9.315621650298e-01 
3.010000000000e+01 9.315621650298e-01 
3.010000000000e+01 9.315621650298e-01 
3.010000000000e+01 9.315621650298e-01 
3.010000000000e+01 9.315621650298e-01 
3.012500000000e+01 9.128758324042e-01 
3.012500000000e+01 9.128758324042e-01 
3.012500000000e+01 9.128758324042e-01 
3.012500000000e+01 9.128758324042e-01 
3.012500000000e+01 9.128758324042e-01 
3.015000000000e+01 8.949248043380e-01 
3.015000000000e+01 8.949248043380e-01 
3.015000000000e+01 8.949248043380e-01 
3.015000000000e+01 8.949248043380e-01 
3.015000000000e+01 8.949248043380e-01 
3.017500000000e+01 8.778290027968e-01 
3.017500000000e+01 8.778290027968e-01 
3.017500000000e+01 8.778290027968e-01 
3.017500000000e+01 8.778290027968e-01 
3.017500000000e+01 8.778290027968e-01 
3.020000000000e+01 8.616255702900e-01 
3.020000000000e+01 8.616255702900e-01 
3.020000000000e+01 8.616255702900e-01 
3.020000000000e+01 8.616255702900e-01 
3.020000000000e+01 8.616255702900e-01 
3.022500000000e+01 8.463059583920e-01 
3.022500000000e+01 8.463059583920e-01 
3.022500000000e+01 8.463059583920e-01 
3.022500000000e+01 8.463059583920e-01 
3.022500000000e+01 8.463059583920e-01 
3.025000000000e+01 8.318370344398e-01 
3.025000000000e+01 8.318370344398e-01 
3.025000000000e+01 8.318370344398e-01 
3.025000000000e+01 8.318370344398e-01 
3.025000000000e+01 8.318370344398e-01 
3.027500000000e+01 8.181733156316e-01 
3.027500000000e+01 8.181733156316e-01 
3.027500000000e+01 8.181733156316e-01 
3.027500000000e+01 8.181733156316e-01 
3.027500000000e+01 8.181733156316e-01 
3.030000000000e+01 8.052640970350e-01 
3.030000000000e+01 8.052640970350e-01 
3.030000000000e+01 8.052640970350e-01 
3.030000000000e+01 8.052640970350e-01 
3.030000000000e+01 8.052640970350e-01 
3.032500000000e+01 7.930575753856e-01 
3.032500000000e+01 7.930575753856e-01 
3.032500000000e+01 7.930575753856e-01 
3.032500000000e+01 7.930575753856e-01 
3.032500000000e+01 7.930575753856e-01 
3.035000000000e+01 7.815031815402e-01 
3.035000000000e+01 7.815031815402e-01 
3.035000000000e+01 7.815031815402e-01 
3.035000000000e+01 7.815031815402e-01 
3.035000000000e+01 7.815031815402e-01 
3.037500000000e+01 7.705528376764e-01 
3.037500000000e+01 7.705528376764e-01 
3.037500000000e+01 7.705528376764e-01 
3.037500000000e+01 7.705528376764e-01 
3.037500000000e+01 7.705528376764e-01 
3.040000000000e+01 7.601615689674e-01 
3.040000000000e+01 7.601615689674e-01 
3.040000000000e+01 7.601615689674e-01 
3.040000000000e+01 7.601615689674e-01 
3.040000000000e+01 7.601615689674e-01 
3.042500000000e+01 7.502877306002e-01 
3.042500000000e+01 7.502877306002e-01 
3.042500000000e+01 7.502877306002e-01 
3.042500000000e+01 7.502877306002e-01 
3.042500000000e+01 7.502877306002e-01 
3.045000000000e+01 7.408930096824e-01 
3.045000000000e+01 7.408930096824e-01 
3.045000000000e+01 7.408930096824e-01 
3.045000000000e+01 7.408930096824e-01 
3.045000000000e+01 7.408930096824e-01 
3.047500000000e+01 7.319422999608e-01 
3.047500000000e+01 7.319422999608e-01 
3.047500000000e+01 7.319422999608e-01 
3.047500000000e+01 7.319422999608e-01 
3.047500000000e+01 7.319422999608e-01 
3.050000000000e+01 7.234035093991e-01 
3.050000000000e+01 7.234035093991e-01 
3.050000000000e+01 7.234035093991e-01 
3.050000000000e+01 7.234035093991e-01 
3.050000000000e+01 7.234035093991e-01 
3.052500000000e+01 7.152473371957e-01 
3.052500000000e+01 7.152473371957e-01 
3.052500000000e+01 7.152473371957e-01 
3.052500000000e+01 7.152473371957e-01 
3.052500000000e+01 7.152473371957e-01 
3.055000000000e+01 7.074470422112e-01 
3.055000000000e+01 7.074470422112e-01 
3.055000000000e+01 7.074470422112e-01 
3.055000000000e+01 7.074470422112e-01 
3.055000000000e+01 7.074470422112e-01 
3.057500000000e+01 6.999782156504e-01 
3.057500000000e+01 6.999782156504e-01 
3.057500000000e+01 6.999782156504e-01 
3.057500000000e+01 6.999782156504e-01 
3.057500000000e+01 6.999782156504e-01 
3.060000000000e+01 6.928185651596e-01 
3.060000000000e+01 6.928185651596e-01 
3.060000000000e+01 6.928185651596e-01 
3.060000000000e+01 6.928185651596e-01 
3.060000000000e+01 6.928185651596e-01 
3.062500000000e+01 6.859477139679e-01 
3.062500000000e+01 6.859477139679e-01 
3.062500000000e+01 6.859477139679e-01 
3.062500000000e+01 6.859477139679e-01 
3.062500000000e+01 6.859477139679e-01 
3.065000000000e+01 6.793470165436e-01 
3.065000000000e+01 6.793470165436e-01 
3.065000000000e+01 6.793470165436e-01 
3.065000000000e+01 6.793470165436e-01 
3.065000000000e+01 6.793470165436e-01 
3.067500000000e+01 6.729993909360e-01 
3.067500000000e+01 6.729993909360e-01 
3.067500000000e+01 6.729993909360e-01 
3.067500000000e+01 6.729993909360e-01 
3.067500000000e+01 6.729993909360e-01 
3.070000000000e+01 6.668891672206e-01 
3.070000000000e+01 6.668891672206e-01 
3.070000000000e+01 6.668891672206e-01 
3.070000000000e+01 6.668891672206e-01 
3.070000000000e+01 6.668891672206e-01 
3.072500000000e+01 6.610019510587e-01 
3.072500000000e+01 6.610019510587e-01 
3.072500000000e+01 6.610019510587e-01 
3.072500000000e+01 6.610019510587e-01 
3.072500000000e+01 6.610019510587e-01 
3.075000000000e+01 6.553245011865e-01 
3.075000000000e+01 6.553245011865e-01 
3.075000000000e+01 6.553245011865e-01 
3.075000000000e+01 6.553245011865e-01 
3.075000000000e+01 6.553245011865e-01 
3.077500000000e+01 6.498446195878e-01 
3.077500000000e+01 6.498446195878e-01 
3.077500000000e+01 6.498446195878e-01 
3.077500000000e+01 6.498446195878e-01 
3.077500000000e+01 6.498446195878e-01 
3.080000000000e+01 6.445510531188e-01 
3.080000000000e+01 6.445510531188e-01 
3.080000000000e+01 6.445510531188e-01 
3.080000000000e+01 6.445510531188e-01 
3.080000000000e+01 6.445510531188e-01 
3.082500000000e+01 6.394334054150e-01 
3.082500000000e+01 6.394334054150e-01 
3.082500000000e+01 6.394334054150e-01 
3.082500000000e+01 6.394334054150e-01 
3.082500000000e+01 6.394334054150e-01 
3.085000000000e+01 6.344820579917e-01 
3.085000000000e+01 6.344820579917e-01 
3.085000000000e+01 6.344820579917e-01 
3.085000000000e+01 6.344820579917e-01 
3.085000000000e+01 6.344820579917e-01 
3.087500000000e+01 6.296880995462e-01 
3.087500000000e+01 6.296880995462e-01 
3.087500000000e+01 6.296880995462e-01 
3.087500000000e+01 6.296880995462e-01 
3.087500000000e+01 6.296880995462e-01 
3.090000000000e+01 6.250432625624e-01 
3.090000000000e+01 6.250432625624e-01 
3.090000000000e+01 6.250432625624e-01 
3.090000000000e+01 6.250432625624e-01 
3.090000000000e+01 6.250432625624e-01 
3.092500000000e+01 6.205398664126e-01 
3.092500000000e+01 6.205398664126e-01 
3.092500000000e+01 6.205398664126e-01 
3.092500000000e+01 6.205398664126e-01 
3.092500000000e+01 6.205398664126e-01 
3.095000000000e+01 6.161707662369e-01 
3.095000000000e+01 6.161707662369e-01 
3.095000000000e+01 6.161707662369e-01 
3.095000000000e+01 6.161707662369e-01 
3.095000000000e+01 6.161707662369e-01 
3.097500000000e+01 6.119293069613e-01 
3.097500000000e+01 6.119293069613e-01 
3.097500000000e+01 6.119293069613e-01 
3.097500000000e+01 6.119293069613e-01 
3.097500000000e+01 6.119293069613e-01 
3.100000000000e+01 6.078092818871e-01 
3.100000000000e+01 6.078092818871e-01 
3.100000000000e+01 6.078092818871e-01 
3.100000000000e+01 6.078092818871e-01 
3.100000000000e+01 6.078092818871e-01 
3.102500000000e+01 6.038048953494e-01 
3.102500000000e+01 6.038048953494e-01 
3.102500000000e+01 6.038048953494e-01 
3.102500000000e+01 6.038048953494e-01 
3.102500000000e+01 6.038048953494e-01 
3.105000000000e+01 5.999107290013e-01 
3.105000000000e+01 5.999107290013e-01 
3.105000000000e+01 5.999107290013e-01 
3.105000000000e+01 5.999107290013e-01 
3.105000000000e+01 5.999107290013e-01 
3.107500000000e+01 5.961217113309e-01 
3.107500000000e+01 5.961217113309e-01 
3.107500000000e+01 5.961217113309e-01 
3.107500000000e+01 5.961217113309e-01 
3.107500000000e+01 5.961217113309e-01 
3.110000000000e+01 5.924330900627e-01 
3.110000000000e+01 5.924330900627e-01 
3.110000000000e+01 5.924330900627e-01 
3.110000000000e+01 5.924330900627e-01 
3.110000000000e+01 5.924330900627e-01 
3.112500000000e+01 5.888404071392e-01 
3.112500000000e+01 5.888404071392e-01 
3.112500000000e+01 5.888404071392e-01 
3.112500000000e+01 5.888404071392e-01 
3.112500000000e+01 5.888404071392e-01 
3.115000000000e+01 5.853394760078e-01 
3.115000000000e+01 5.853394760078e-01 
3.115000000000e+01 5.853394760078e-01 
3.115000000000e+01 5.853394760078e-01 
3.115000000000e+01 5.853394760078e-01 
3.117500000000e+01 5.819263609758e-01 
3.117500000000e+01 5.819263609758e-01 
3.117500000000e+01 5.819263609758e-01 
3.117500000000e+01 5.819263609758e-01 
3.117500000000e+01 5.819263609758e-01 
3.120000000000e+01 5.785973584173e-01 
3.120000000000e+01 5.785973584173e-01 
3.120000000000e+01 5.785973584173e-01 
3.120000000000e+01 5.785973584173e-01 
3.120000000000e+01 5.785973584173e-01 
3.122500000000e+01 5.753489796460e-01 
3.122500000000e+01 5.753489796460e-01 
3.122500000000e+01 5.753489796460e-01 
3.122500000000e+01 5.753489796460e-01 
3.122500000000e+01 5.753489796460e-01 
3.125000000000e+01 5.721779352840e-01 
3.125000000000e+01 5.721779352840e-01 
3.125000000000e+01 5.721779352840e-01 
3.125000000000e+01 5.721779352840e-01 
3.125000000000e+01 5.721779352840e-01 
3.127500000000e+01 5.690811209785e-01 
3.127500000000e+01 5.690811209785e-01 
3.127500000000e+01 5.690811209785e-01 
3.127500000000e+01 5.690811209785e-01 
3.127500000000e+01 5.690811209785e-01 
3.130000000000e+01 5.660556043336e-01 
3.130000000000e+01 5.660556043336e-01 
3.130000000000e+01 5.660556043336e-01 
3.130000000000e+01 5.660556043336e-01 
3.130000000000e+01 5.660556043336e-01 
3.132500000000e+01 5.630986129391e-01 
3.132500000000e+01 5.630986129391e-01 
3.132500000000e+01 5.630986129391e-01 
3.132500000000e+01 5.630986129391e-01 
3.132500000000e+01 5.630986129391e-01 
3.135000000000e+01 5.602075233904e-01 
3.135000000000e+01 5.602075233904e-01 
3.135000000000e+01 5.602075233904e-01 
3.135000000000e+01 5.602075233904e-01 
3.135000000000e+01 5.602075233904e-01 
3.137500000000e+01 5.573798512060e-01 
3.137500000000e+01 5.573798512060e-01 
3.137500000000e+01 5.573798512060e-01 
3.137500000000e+01 5.573798512060e-01 
3.137500000000e+01 5.573798512060e-01 
3.140000000000e+01 5.546132415581e-01 
3.140000000000e+01 5.546132415581e-01 
3.140000000000e+01 5.546132415581e-01 
3.140000000000e+01 5.546132415581e-01 
3.140000000000e+01 5.546132415581e-01 
3.142500000000e+01 5.519054607414e-01 
3.142500000000e+01 5.519054607414e-01 
3.142500000000e+01 5.519054607414e-01 
3.142500000000e+01 5.519054607414e-01 
3.142500000000e+01 5.519054607414e-01 
3.145000000000e+01 5.492543883110e-01 
3.145000000000e+01 5.492543883110e-01 
3.145000000000e+01 5.492543883110e-01 
3.145000000000e+01 5.492543883110e-01 
3.145000000000e+01 5.492543883110e-01 
3.147500000000e+01 5.466580098318e-01 
3.147500000000e+01 5.466580098318e-01 
3.147500000000e+01 5.466580098318e-01 
3.147500000000e+01 5.466580098318e-01 
3.147500000000e+01 5.466580098318e-01 
3.150000000000e+01 5.441144101810e-01 
3.150000000000e+01 5.441144101810e-01 
3.150000000000e+01 5.441144101810e-01 
3.150000000000e+01 5.441144101810e-01 
3.150000000000e+01 5.441144101810e-01 
3.152500000000e+01 5.416217673588e-01 
3.152500000000e+01 5.416217673588e-01 
3.152500000000e+01 5.416217673588e-01 
3.152500000000e+01 5.416217673588e-01 
3.152500000000e+01 5.416217673588e-01 
3.155000000000e+01 5.391783467591e-01 
3.155000000000e+01 5.391783467591e-01 
3.155000000000e+01 5.391783467591e-01 
3.155000000000e+01 5.391783467591e-01 
3.155000000000e+01 5.391783467591e-01 
3.157500000000e+01 5.367824958643e-01 
3.157500000000e+01 5.367824958643e-01 
3.157500000000e+01 5.367824958643e-01 
3.157500000000e+01 5.367824958643e-01 
3.157500000000e+01 5.367824958643e-01 
3.160000000000e+01 5.344326393247e-01 
3.160000000000e+01 5.344326393247e-01 
3.160000000000e+01 5.344326393247e-01 
3.160000000000e+01 5.344326393247e-01 
3.160000000000e+01 5.344326393247e-01 
3.162500000000e+01 5.321272743928e-01 
3.162500000000e+01 5.321272743928e-01 
3.162500000000e+01 5.321272743928e-01 
3.162500000000e+01 5.321272743928e-01 
3.162500000000e+01 5.321272743928e-01 
3.165000000000e+01 5.298649666811e-01 
3.165000000000e+01 5.298649666811e-01 
3.165000000000e+01 5.298649666811e-01 
3.165000000000e+01 5.298649666811e-01 
3.165000000000e+01 5.298649666811e-01 
3.167500000000e+01 5.276443462180e-01 
3.167500000000e+01 5.276443462180e-01 
3.167500000000e+01 5.276443462180e-01 
3.167500000000e+01 5.276443462180e-01 
3.167500000000e+01 5.276443462180e-01 
3.170000000000e+01 5.254641037767e-01 
3.170000000000e+01 5.254641037767e-01 
3.170000000000e+01 5.254641037767e-01 
3.170000000000e+01 5.254641037767e-01 
3.170000000000e+01 5.254641037767e-01 
3.172500000000e+01 5.233229874560e-01 
3.172500000000e+01 5.233229874560e-01 
3.172500000000e+01 5.233229874560e-01 
3.172500000000e+01 5.233229874560e-01 
3.172500000000e+01 5.233229874560e-01 
3.175000000000e+01 5.212197994921e-01 
3.175000000000e+01 5.212197994921e-01 
3.175000000000e+01 5.212197994921e-01 
3.175000000000e+01 5.212197994921e-01 
3.175000000000e+01 5.212197994921e-01 
3.177500000000e+01 5.191533932842e-01 
3.177500000000e+01 5.191533932842e-01 
3.177500000000e+01 5.191533932842e-01 
3.177500000000e+01 5.191533932842e-01 
3.177500000000e+01 5.191533932842e-01 
3.180000000000e+01 5.171226706164e-01 
3.180000000000e+01 5.171226706164e-01 
3.180000000000e+01 5.171226706164e-01 
3.180000000000e+01 5.171226706164e-01 
3.180000000000e+01 5.171226706164e-01 
3.182500000000e+01 5.151265790614e-01 
3.182500000000e+01 5.151265790614e-01 
3.182500000000e+01 5.151265790614e-01 
3.182500000000e+01 5.151265790614e-01 
3.182500000000e+01 5.151265790614e-01 
3.185000000000e+01 5.131641095520e-01 
3.185000000000e+01 5.131641095520e-01 
3.185000000000e+01 5.131641095520e-01 
3.185000000000e+01 5.131641095520e-01 
3.185000000000e+01 5.131641095520e-01 
3.187500000000e+01 5.112342941078e-01 
3.187500000000e+01 5.112342941078e-01 
3.187500000000e+01 5.112342941078e-01 
3.187500000000e+01 5.112342941078e-01 
3.187500000000e+01 5.112342941078e-01 
3.190000000000e+01 5.093362037054e-01 
3.190000000000e+01 5.093362037054e-01 
3.190000000000e+01 5.093362037054e-01 
3.190000000000e+01 5.093362037054e-01 
3.190000000000e+01 5.093362037054e-01 
3.192500000000e+01 5.074689462822e-01 
3.192500000000e+01 5.074689462822e-01 
3.192500000000e+01 5.074689462822e-01 
3.192500000000e+01 5.074689462822e-01 
3.192500000000e+01 5.074689462822e-01 
3.195000000000e+01 5.056316648631e-01 
3.195000000000e+01 5.056316648631e-01 
3.195000000000e+01 5.056316648631e-01 
3.195000000000e+01 5.056316648631e-01 
3.195000000000e+01 5.056316648631e-01 
3.197500000000e+01 5.038235358020e-01 
3.197500000000e+01 5.038235358020e-01 
3.197500000000e+01 5.038235358020e-01 
3.197500000000e+01 5.038235358020e-01 
3.197500000000e+01 5.038235358020e-01 
3.200000000000e+01 4.974535295700e-01 
3.200000000000e+01 4.975063014544e-01 
3.200000000000e+01 4.975326531104e-01 
3.200000000000e+01 4.974799268578e-01 
3.200000000000e+01 4.975589815741e-01 
3.493702724893e+01 3.858287820870e-01 
3.494900995688e+01 3.855529642094e-01 
3.496099266484e+01 3.852780141619e-01 
3.497297537279e+01 3.850039272601e-01 
3.498495808075e+01 3.847306988550e-01 
3.787405449786e+01 3.405736985040e-01 
3.789801991377e+01 3.402857872289e-01 
3.792198532968e+01 3.399990319918e-01 
3.794595074559e+01 3.397134247251e-01 
3.796991616150e+01 3.394289574413e-01 
4.081108174679e+01 3.126353242386e-01 
4.084702987065e+01 3.123523544736e-01 
4.088297799451e+01 3.120706262853e-01 
4.091892611838e+01 3.117901301858e-01 
4.095487424224e+01 3.115108567900e-01 
4.374810899571e+01 2.931241128741e-01 
4.379603982753e+01 2.928499734125e-01 
4.384397065935e+01 2.925770958465e-01 
4.389190149117e+01 2.923054700547e-01 
4.393983232299e+01 2.920350860312e-01 
4.668513624464e+01 2.784079947179e-01 
4.674504978442e+01 2.781430477938e-01 
4.680496332419e+01 2.778793577835e-01 
4.686487686397e+01 2.776169142956e-01 
4.692479040374e+01 2.773557070611e-01 
 TITLE = "Profiles along polylines"
 VARIABLES = "DIST" "SATURATION1" 
 ZONE T="TIME=1.797693134862e+308"
1.168513624464e+01 1.000000000000e+00 
1.174504978442e+01 1.000000000000e+00 
1.180496332419e+01 1.000000000000e+00 
1.186487686397e+01 1.000000000000e+00 
1.192479040374e+01 1.000000000000e+00 
1.229563170315e+01 1.000000000000e+00 
1.235354812494e+01 1.000000000000e+00 
1.241146454672e+01 1.000000000000e+00 
1.246938096850e+01 1.000000000000e+00 
1.252729739028e+01 1.000000000000e+00 
1.290612716167e+01 1.000000000000e+00 
1.296204646546e+01 1.000000000000e+00 
1.301796576925e+01 1.000000000000e+00 
1.307388507303e+01 1.000000000000e+00 
1.312980437682e+01 1.000000000000e+00 
1.351662262018e+01 1.000000000000e+00 
1.357054480598e+01 1.000000000000e+00 
1.362446699177e+01 1.000000000000e+00 
1.367838917757e+01 1.000000000000e+00 
1.373231136337e+01 1.000000000000e+00 
1.412711807869e+01 1.000000000000e+00 
1.417904314649e+01 1.000000000000e+00 
1.423096821430e+01 1.000000000000e+00 
1.428289328210e+01 1.000000000000e+00 
1.433481834991e+01 1.000000000000e+00 
1.473761353720e+01 1.000000000000e+00 
1.478754148701e+01 1.000000000000e+00 
1.483746943683e+01 1.000000000000e+00 
1.488739738664e+01 1.000000000000e+00 
1.493732533645e+01 1.000000000000e+00 
1.534810899571e+01 1.000000000000e+00 
1.539603982753e+01 1.000000000000e+00 
1.544397065935e+01 1.000000000000e+00 
1.549190149117e+01 1.000000000000e+00 
1.553983232299e+01 1.000000000000e+00 
1.595860445423e+01 1.000000000000e+00 
1.600453816805e+01 1.000000000000e+00 
1.605047188188e+01 1.000000000000e+00 
1.609640559571e+01 1.000000000000e+00 
1.614233930953e+01 1.000000000000e+00 
1.656909991274e+01 1.000000000000e+00 
1.661303650857e+01 1.000000000000e+00 
1.665697310441e+01 1.000000000000e+00 
1.670090970024e+01 1.000000000000e+00 
1.674484629607e+01 1.000000000000e+00 
1.717959537125e+01 1.000000000000e+00 
1.722153484909e+01 1.000000000000e+00 
1.726347432693e+01 1.000000000000e+00 
1.730541380477e+01 1.000000000000e+00 
1.734735328262e+01 1.000000000000e+00 
1.779009082976e+01 1.000000000000e+00 
1.783003318961e+01 1.000000000000e+00 
1.786997554946e+01 1.000000000000e+00 
1.790991790931e+01 1.000000000000e+00 
1.794986026916e+01 1.000000000000e+00 
1.840058628827e+01 1.000000000000e+00 
1.843853153013e+01 1.000000000000e+00 
1.847647677198e+01 1.000000000000e+00 
1.851442201384e+01 1.000000000000e+00 
1.855236725570e+01 1.000000000000e+00 
1.901108174678e+01 1.000000000000e+00 
1.904702987064e+01 1.000000000000e+00 
1.908297799451e+01 1.000000000000e+00 
1.911892611837e+01 1.000000000000e+00 
1.915487424224e+01 1.000000000000e+00 
1.962157720529e+01 1.000000000000e+00 
1.965552821116e+01 1.000000000000e+00 
1.968947921703e+01 1.000000000000e+00 
1.972343022291e+01 1.000000000000e+00 
1.975738122878e+01 1.000000000000e+00 
2.023207266380e+01 1.000000000000e+00 
2.026402655168e+01 1.000000000000e+00 
2.029598043956e+01 1.000000000000e+00 
2.032793432744e+01 1.000000000000e+00 
2.035988821532e+01 1.000000000000e+00 
2.084256812231e+01 1.000000000000e+00 
2.087252489220e+01 1.000000000000e+00 
2.090248166209e+01 1.000000000000e+00 
2.093243843197e+01 1.000000000000e+00 
2.096239520186e+01 1.000000000000e+00 
2.145306358082e+01 1.000000000000e+00 
2.148102323272e+01 1.000000000000e+00 
2.150898288461e+01 1.000000000000e+00 
2.153694253651e+01 1.000000000000e+00 
2.156490218840e+01 1.000000000000e+00 
2.206355903934e+01 1.000000000000e+00 
2.208952157324e+01 1.000000000000e+00 
2.211548410714e+01 1.000000000000e+00 
2.214144664104e+01 1.000000000000e+00 
2.216740917494e+01 1.000000000000e+00 
2.267405449785e+01 1.000000000000e+00 
2.269801991376e+01 1.000000000000e+00 
2.272198532967e+01 1.000000000000e+00 
2.274595074558e+01 1.000000000000e+00 
2.276991616149e+01 1.000000000000e+00 
2.328454995636e+01 1.000000000000e+00 
2.330651825428e+01 1.000000000000e+00 
2.332848655220e+01 1.000000000000e+00 
2.335045485011e+01 1.000000000000e+00 
2.337242314803e+01 1.000000000000e+00 
2.389504541487e+01 1.000000000000e+00 
2.391501659480e+01 1.000000000000e+00 
2.393498777472e+01 1.000000000000e+00 
2.395495895465e+01 1.000000000000e+00 
2.397493013457e+01 1.000000000000e+00 
2.450554087339e+01 1.000000000000e+00 
2.452351493532e+01 1.000000000000e+00 
2.454148899725e+01 1.000000000000e+00 
2.455946305918e+01 1.000000000000e+00 
2.457743712112e+01 1.000000000000e+00 
2.511603633190e+01 1.000000000000e+00 
2.513201327584e+01 1.000000000000e+00 
2.514799021978e+01 1.000000000000e+00 
2.516396716372e+01 1.000000000000e+00 
2.517994410766e+01 1.000000000000e+00 
2.572653179041e+01 1.000000000000e+00 
2.574051161636e+01 1.000000000000e+00 
2.575449144231e+01 1.000000000000e+00 
2.576847126825e+01 1.000000000000e+00 
2.578245109420e+01 1.000000000000e+00 
2.633702724892e+01 1.000000000000e+00 
2.634900995688e+01 1.000000000000e+00 
2.636099266483e+01 1.000000000000e+00 
2.637297537279e+01 1.000000000000e+00 
2.638495808074e+01 1.000000000000e+00 
2.694752270744e+01 1.000000000000e+00 
2.695750829740e+01 1.000000000000e+00 
2.696749388736e+01 1.000000000000e+00 
2.697747947732e+01 1.000000000000e+00 
2.698746506729e+01 1.000000000000e+00 
2.755801816595e+01 1.000000000000e+00 
2.756600663792e+01 1.000000000000e+00 
2.757399510989e+01 1.000000000000e+00 
2.758198358186e+01 1.000000000000e+00 
2.758997205383e+01 1.000000000000e+00 
2.816851362446e+01 1.000000000000e+00 
2.817450497844e+01 1.000000000000e+00 
2.818049633242e+01 1.000000000000e+00 
2.818648768639e+01 1.000000000000e+00 
2.819247904037e+01 1.000000000000e+00 
2.877900908297e+01 1.000000000000e+00 
2.878300331896e+01 1.000000000000e+00 
2.878699755494e+01 1.000000000000e+00 
2.879099179093e+01 1.000000000000e+00 
2.879498602691e+01 1.000000000000e+00 
2.938950454149e+01 1.000000000000e+00 
2.939150165948e+01 1.000000000000e+00 
2.939349877747e+01 1.000000000000e+00 
2.939549589546e+01 1.000000000000e+00 
2.939749301346e+01 1.000000000000e+00 
3.000000000000e+01 1.000000000000e+00 
3.000000000000e+01 1.000000000000e+00 
3.000000000000e+01 1.000000000000e+00 
3.000000000000e+01 1.000000000000e+00 
3.000000000000e+01 1.000000000000e+00 
3.002500000000e+01 1.000000000000e+00 
3.002500000000e+01 1.000000000000e+00 
3.002500000000e+01 1.000000000000e+00 
3.002500000000e+01 1.000000000000e+00 
3.002500000000e+01 1.000000000000e+00 
3.005000000000e+01 1.000000000000e+00 
3.005000000000e+01 1.000000000000e+00 
3.005000000000e+01 1.000000000000e+00 
3.005000000000e+01 1.000000000000e+00 
3.005000000000e+01 1.000000000000e+00 
3.007500000000e+01 1.000000000000e+00 
3.007500000000e+01 1.000000000000e+00 
3.007500000000e+01 1.000000000000e+00 
3.007500000000e+01 1.000000000000e+00 
3.007500000000e+01 1.000000000000e+00 
3.010000000000e+01 1.000000000000e+00 
3.010000000000e+01 1.000000000000e+00 
3.010000000000e+01 1.000000000000e+00 
3.010000000000e+01 1.000000000000e+00 
3.010000000000e+01 1.000000000000e+00 
3.012500000000e+01 1.000000000000e+00 
3.012500000000e+01 1.000000000000e+00 
3.012500000000e+01 1.000000000000e+00 
3.012500000000e+01 1.000000000000e+00 
3.012500000000e+01 1.000000000000e+00 
3.015000000000e+01 1.000000000000e+00 
3.015000000000e+01 1.000000000000e+00 
3.015000000000e+01 1.000000000000e+00 