 TITLE = "Profiles along polylines"
 VARIABLES = "DIST" "SATURATION1" 
 ZONE T="TIME=0.000000000000e+00"
1.390475774029e+00 1.000000000000e+00 
1.395477485446e+00 1.000000000000e+00 
1.400479196864e+00 1.000000000000e+00 
1.405480908281e+00 1.000000000000e+00 
1.410482619698e+00 1.000000000000e+00 
2.344126581561e+00 1.000000000000e+00 
2.348961569264e+00 1.000000000000e+00 
2.353796556968e+00 1.000000000000e+00 
2.358631544671e+00 1.000000000000e+00 
2.363466532375e+00 1.000000000000e+00 
3.297777389093e+00 1.000000000000e+00 
3.302445653082e+00 1.000000000000e+00 
3.307113917072e+00 1.000000000000e+00 
3.311782181061e+00 1.000000000000e+00 
3.316450445051e+00 1.000000000000e+00 
4.251428196626e+00 1.000000000000e+00 
4.255929736901e+00 1.000000000000e+00 
4.260431277177e+00 1.000000000000e+00 
4.264932817453e+00 1.000000000000e+00 
4.269434357728e+00 1.000000000000e+00 
5.205079004158e+00 1.000000000000e+00 
5.209413820720e+00 1.000000000000e+00 
5.213748637282e+00 1.000000000000e+00 
5.218083453843e+00 1.000000000000e+00 
5.222418270405e+00 1.000000000000e+00 
6.158729811690e+00 1.000000000000e+00 
6.162897904538e+00 1.000000000000e+00 
6.167065997385e+00 1.000000000000e+00 
6.171234090233e+00 1.000000000000e+00 
6.175402183081e+00 1.000000000000e+00 
7.112380619221e+00 1.000000000000e+00 
7.116381988355e+00 1.000000000000e+00 
7.120383357489e+00 1.000000000000e+00 
7.124384726623e+00 1.000000000000e+00 
7.128386095757e+00 1.000000000000e+00 
8.066031426753e+00 1.000000000000e+00 
8.069866072173e+00 1.000000000000e+00 
8.073700717593e+00 1.000000000000e+00 
8.077535363013e+00 1.000000000000e+00 
8.081370008433e+00 1.000000000000e+00 
9.019682234284e+00 1.000000000000e+00 
9.023350155991e+00 1.000000000000e+00 
9.027018077697e+00 1.000000000000e+00 
9.030685999403e+00 1.000000000000e+00 
9.034353921109e+00 1.000000000000e+00 
9.973333041814e+00 1.000000000000e+00 
9.976834239806e+00 1.000000000000e+00 
9.980335437798e+00 1.000000000000e+00 
9.983836635790e+00 1.000000000000e+00 
9.987337833782e+00 1.000000000000e+00 
1.092698384934e+01 1.000000000000e+00 
1.093031832362e+01 1.000000000000e+00 
1.093365279790e+01 1.000000000000e+00 
1.093698727218e+01 1.000000000000e+00 
1.094032174646e+01 1.000000000000e+00 
1.188063465687e+01 1.000000000000e+00 
1.188380240744e+01 1.000000000000e+00 
1.188697015800e+01 1.000000000000e+00 
1.189013790856e+01 1.000000000000e+00 
1.189330565913e+01 1.000000000000e+00 
1.283428546440e+01 1.000000000000e+00 
1.283728649125e+01 1.000000000000e+00 
1.284028751810e+01 1.000000000000e+00 
1.284328854495e+01 1.000000000000e+00 
1.284628957180e+01 1.000000000000e+00 
1.378793627193e+01 1.000000000000e+00 
1.379077057507e+01 1.000000000000e+00 
1.379360487820e+01 1.000000000000e+00 
1.379643918134e+01 1.000000000000e+00 
1.379927348448e+01 1.000000000000e+00 
1.474158707946e+01 1.000000000000e+00 
1.474425465888e+01 1.000000000000e+00 
1.474692223830e+01 1.000000000000e+00 
1.474958981773e+01 1.000000000000e+00 
1.475225739715e+01 1.000000000000e+00 
1.569523788699e+01 1.000000000000e+00 
1.569773874270e+01 1.000000000000e+00 
1.570023959841e+01 1.000000000000e+00 
1.570274045411e+01 1.000000000000e+00 
1.570524130982e+01 1.000000000000e+00 
1.664888869452e+01 1.000000000000e+00 
1.665122282652e+01 1.000000000000e+00 
1.665355695851e+01 1.000000000000e+00 
1.665589109051e+01 1.000000000000e+00 
1.665822522250e+01 1.000000000000e+00 
1.760253950206e+01 1.000000000000e+00 
1.760470691034e+01 1.000000000000e+00 
1.760687431862e+01 1.000000000000e+00 
1.760904172690e+01 1.000000000000e+00 
1.761120913518e+01 1.000000000000e+00 
1.855619030959e+01 1.000000000000e+00 
1.855819099416e+01 1.000000000000e+00 
1.856019167872e+01 1.000000000000e+00 
1.856219236329e+01 1.000000000000e+00 
1.856419304786e+01 1.000000000000e+00 
1.950984111712e+01 1.000000000000e+00 
1.951167507798e+01 1.000000000000e+00 
1.951350903883e+01 1.000000000000e+00 
1.951534299968e+01 1.000000000000e+00 
1.951717696054e+01 1.000000000000e+00 
2.046349192466e+01 1.000000000000e+00 
2.046515916180e+01 1.000000000000e+00 
2.046682639894e+01 1.000000000000e+00 
2.046849363608e+01 1.000000000000e+00 
2.047016087322e+01 1.000000000000e+00 
2.141714273219e+01 1.000000000000e+00 
2.141864324562e+01 1.000000000000e+00 
2.142014375904e+01 1.000000000000e+00 
2.142164427247e+01 1.000000000000e+00 
2.142314478589e+01 1.000000000000e+00 
2.237079353973e+01 1.000000000000e+00 
2.237212732944e+01 1.000000000000e+00 
2.237346111915e+01 1.000000000000e+00 
2.237479490886e+01 1.000000000000e+00 
2.237612869857e+01 1.000000000000e+00 
2.332444434726e+01 1.000000000000e+00 
2.332561141326e+01 1.000000000000e+00 
2.332677847926e+01 1.000000000000e+00 
2.332794554525e+01 1.000000000000e+00 
2.332911261125e+01 1.000000000000e+00 
2.427809515480e+01 1.000000000000e+00 
2.427909549708e+01 1.000000000000e+00 
2.428009583936e+01 1.000000000000e+00 
2.428109618165e+01 1.000000000000e+00 
2.428209652393e+01 1.000000000000e+00 
2.523174596233e+01 1.000000000000e+00 
2.523257958090e+01 1.000000000000e+00 
2.523341319947e+01 1.000000000000e+00 
2.523424681804e+01 1.000000000000e+00 
2.523508043661e+01 1.000000000000e+00 
2.618539676986e+01 1.000000000000e+00 
2.618606366472e+01 1.000000000000e+00 
2.618673055957e+01 1.000000000000e+00 
2.618739745443e+01 1.000000000000e+00 
2.618806434929e+01 1.000000000000e+00 
2.713904757740e+01 1.000000000000e+00 
2.713954774854e+01 1.000000000000e+00 
2.714004791968e+01 1.000000000000e+00 
2.714054809082e+01 1.000000000000e+00 
2.714104826196e+01 1.000000000000e+00 
2.809269838493e+01 1.000000000000e+00 
2.809303183236e+01 1.000000000000e+00 
2.809336527979e+01 1.000000000000e+00 
2.809369872722e+01 1.000000000000e+00 
2.809403217464e+01 1.000000000000e+00 
2.904634919247e+01 1.000000000000e+00 
2.904651591618e+01 1.000000000000e+00 
2.904668263989e+01 1.000000000000e+00 
2.904684936361e+01 1.000000000000e+00 
2.904701608732e+01 1.000000000000e+00 
3.000000000000e+01 1.000000000000e+00 
3.000000000000e+01 1.000000000000e+00 
3.000000000000e+01 1.000000000000e+00 
3.000000000000e+01 1.000000000000e+00 
3.000000000000e+01 1.000000000000e+00 
3.002500000000e+01 9.876207709446e-01 
3.002500000000e+01 9.876207709446e-01 
3.002500000000e+01 9.876207709446e-01 
3.002500000000e+01 9.876207709446e-01 
3.002500000000e+01 9.876207709446e-01 
3.005000000000e+01 9.697756439369e-01 
3.005000000000e+01 9.697756439369e-01 
3.005000000000e+01 9.697756439369e-01 
3.005000000000e+01 9.697756439369e-01 
3.005000000000e+01 9.697756439369e-01 
3.007500000000e+01 9.507134089444e-01 
3.007500000000e+01 9.507134089444e-01 
3.007500000000e+01 9.507134089444e-01 
3.007500000000e+01 9.507134089444e-01 
3.007500000000e+01 9.507134089444e-01 
3.010000000000e+01 9.315621650298e-01 
3.010000000000e+01 9.315621650298e-01 
3.010000000000e+01 9.315621650298e-01 
3.010000000000e+01 9.315621650298e-01 
3.010000000000e+01 9.315621650298e-01 
3.012500000000e+01 9.128758324042e-01 
3.012500000000e+01 9.128758324042e-01 
3.012500000000e+01 9.128758324042e-01 
3.012500000000e+01 9.128758324042e-01 
3.012500000000e+01 9.128758324042e-01 
3.015000000000e+01 8.949248043380e-01 
3.015000000000e+01 8.949248043380e-01 
3.015000000000e+01 8.949248043380e-01 
3.015000000000e+01 8.949248043380e-01 
3.015000000000e+01 8.949248043380e-01 
3.017500000000e+01 8.778290027968e-01 
3.017500000000e+01 8.778290027968e-01 
3.017500000000e+01 8.778290027968e-01 
3.017500000000e+01 8.778290027968e-01 
3.017500000000e+01 8.778290027968e-01 
3.020000000000e+01 8.616255702900e-01 
3.020000000000e+01 8.616255702900e-01 
3.020000000000e+01 8.616255702900e-01 
3.020000000000e+01 8.616255702900e-01 
3.020000000000e+01 8.616255702900e-01 
3.022500000000e+01 8.463059583920e-01 
3.022500000000e+01 8.463059583920e-01 
3.022500000000e+01 8.463059583920e-01 
3.022500000000e+01 8.463059583920e-01 
3.022500000000e+01 8.463059583920e-01 
3.025000000000e+01 8.318370344398e-01 
3.025000000000e+01 8.318370344398e-01 
3.025000000000e+01 8.318370344398e-01 
3.025000000000e+01 8.318370344398e-01 
3.025000000000e+01 8.318370344398e-01 
3.027500000000e+01 8.181733156316e-01 
3.027500000000e+01 8.181733156316e-01 
3.027500000000e+01 8.181733156316e-01 
3.027500000000e+01 8.181733156316e-01 
3.027500000000e+01 8.181733156316e-01 
3.030000000000e+01 8.052640970350e-01 
3.030000000000e+01 8.052640970350e-01 
3.030000000000e+01 8.052640970350e-01 
3.030000000000e+01 8.052640970350e-01 
3.030000000000e+01 8.052640970350e-01 
3.032500000000e+01 7.930575753856e-01 
3.032500000000e+01 7.930575753856e-01 
3.032500000000e+01 7.930575753856e-01 
3.032500000000e+01 7.930575753856e-01 
3.032500000000e+01 7.930575753856e-01 
3.035000000000e+01 7.815031815402e-01 
3.035000000000e+01 7.815031815402e-01 
3.035000000000e+01 7.815031815402e-01 
3.035000000000e+01 7.815031815402e-01 
3.035000000000e+01 7.815031815402e-01 
3.037500000000e+01 7.705528376764e-01 
3.037500000000e+01 7.705528376764e-01 
3.037500000000e+01 7.705528376764e-01 
3.037500000000e+01 7.705528376764e-01 
3.037500000000e+01 7.705528376764e-01 
3.040000000000e+01 7.601615689674e-01 
3.040000000000e+01 7.601615689674e-01 
3.040000000000e+01 7.601615689674e-01 
3.040000000000e+01 7.601615689674e-01 
3.040000000000e+01 7.601615689674e-01 
3.042500000000e+01 7.502877306002e-01 
3.042500000000e+01 7.502877306002e-01 
3.042500000000e+01 7.502877306002e-01 
3.042500000000e+01 7.502877306002e-01 
3.042500000000e+01 7.502877306002e-01 
3.045000000000e+01 7.408930096824e-01 
3.045000000000e+01 7.408930096824e-01 
3.045000000000e+01 7.408930096824e-01 
3.045000000000e+01 7.408930096824e-01 
3.045000000000e+01 7.408930096824e-01 
3.047500000000e+01 7.319422999608e-01 
3.047500000000e+01 7.319422999608e-01 
3.047500000000e+01 7.319422999608e-01 
3.047500000000e+01 7.319422999608e-01 
3.047500000000e+01 7.319422999608e-01 
3.050000000000e+01 7.234035093991e-01 
3.050000000000e+01 7.234035093991e-01 
3.050000000000e+01 7.234035093991e-01 
3.050000000000e+01 7.234035093991e-01 
3.050000000000e+01 7.234035093991e-01 
3.052500000000e+01 7.152473371957e-01 
3.052500000000e+01 7.152473371957e-01 
3.052500000000e+01 7.152473371957e-01 
3.052500000000e+01 7.152473371957e-01 
3.052500000000e+01 7.152473371957e-01 
3.055000000000e+01 7.074470422112e-01 
3.055000000000e+01 7.074470422112e-01 
3.055000000000e+01 7.074470422112e-01 
3.055000000000e+01 7.074470422112e-01 
3.055000000000e+01 7.074470422112e-01 
3.057500000000e+01 6.999782156504e-01 
3.057500000000e+01 6.999782156504e-01 
3.057500000000e+01 6.999782156504e-01 
3.057500000000e+01 6.999782156504e-01 
3.057500000000e+01 6.999782156504e-01 
3.060000000000e+01 6.928185651596e-01 
3.060000000000e+01 6.928185651596e-01 
3.060000000000e+01 6.928185651596e-01 
3.060000000000e+01 6.928185651596e-01 
3.060000000000e+01 6.928185651596e-01 
3.062500000000e+01 6.859477139679e-01 
3.062500000000e+01 6.859477139679e-01 
3.062500000000e+01 6.859477139679e-01 
3.062500000000e+01 6.859477139679e-01 
3.062500000000e+01 6.859477139679e-01 
3.065000000000e+01 6.793470165436e-01 
3.065000000000e+01 6.793470165436e-01 
3.065000000000e+01 6.793470165436e-01 
3.065000000000e+01 6.793470165436e-01 
3.065000000000e+01 6.793470165436e-01 
3.067500000000e+01 6.729993909360e-01 
3.067500000000e+01 6.729993909360e-01 
3.067500000000e+01 6.729993909360e-01 
3.067500000000e+01 6.729993909360e-01 
3.067500000000e+01 6.729993909360e-01 
3.070000000000e+01 6.668891672206e-01 
3.070000000000e+01 6.668891672206e-01 
3.070000000000e+01 6.668891672206e-01 
3.070000000000e+01 6.668891672206e-01 
3.070000000000e+01 6.668891672206e-01 
3.072500000000e+01 6.610019510587e-01 
3.072500000000e+01 6.610019510587e-01 
3.072500000000e+01 6.610019510587e-01 
3.072500000000e+01 6.610019510587e-01 
3.072500000000e+01 6.610019510587e-01 
3.075000000000e+01 6.553245011865e-01 
3.075000000000e+01 6.553245011865e-01 
3.075000000000e+01 6.553245011865e-01 
3.075000000000e+01 6.553245011865e-01 
3.075000000000e+01 6.553245011865e-01 
3.077500000000e+01 6.498446195878e-01 
3.077500000000e+01 6.498446195878e-01 
3.077500000000e+01 6.498446195878e-01 
3.077500000000e+01 6.498446195878e-01 
3.077500000000e+01 6.498446195878e-01 
3.080000000000e+01 6.445510531188e-01 
3.080000000000e+01 6.445510531188e-01 
3.080000000000e+01 6.445510531188e-01 
3.080000000000e+01 6.445510531188e-01 
3.080000000000e+01 6.445510531188e-01 
3.082500000000e+01 6.394334054150e-01 
3.082500000000e+01 6.394334054150e-01 
3.082500000000e+01 6.394334054150e-01 
3.082500000000e+01 6.394334054150e-01 
3.082500000000e+01 6.394334054150e-01 
3.085000000000e+01 6.344820579917e-01 
3.085000000000e+01 6.344820579917e-01 
3.085000000000e+01 6.344820579917e-01 
3.085000000000e+01 6.344820579917e-01 
3.085000000000e+01 6.344820579917e-01 
3.087500000000e+01 6.296880995462e-01 
3.087500000000e+01 6.296880995462e-01 
3.087500000000e+01 6.296880995462e-01 
3.087500000000e+01 6.296880995462e-01 
3.087500000000e+01 6.296880995462e-01 
3.090000000000e+01 6.250432625624e-01 
3.090000000000e+01 6.250432625624e-01 
3.090000000000e+01 6.250432625624e-01 
3.090000000000e+01 6.250432625624e-01 
3.090000000000e+01 6.250432625624e-01 
3.092500000000e+01 6.205398664126e-01 
3.092500000000e+01 6.205398664126e-01 
3.092500000000e+01 6.205398664126e-01 
3.092500000000e+01 6.205398664126e-01 
3.092500000000e+01 6.205398664126e-01 
3.095000000000e+01 6.161707662369e-01 
3.095000000000e+01 6.161707662369e-01 
3.095000000000e+01 6.161707662369e-01 
3.095000000000e+01 6.161707662369e-01 
3.095000000000e+01 6.161707662369e-01 
3.097500000000e+01 6.119293069613e-01 
3.097500000000e+01 6.119293069613e-01 
3.097500000000e+01 6.119293069613e-01 
3.097500000000e+01 6.119293069613e-01 
3.097500000000e+01 6.119293069613e-01 
3.100000000000e+01 6.078092818871e-01 
3.100000000000e+01 6.078092818871e-01 
3.100000000000e+01 6.078092818871e-01 
3.100000000000e+01 6.078092818871e-01 
3.100000000000e+01 6.078092818871e-01 
3.102500000000e+01 6.038048953494e-01 
3.102500000000e+01 6.038048953494e-01 
3.102500000000e+01 6.038048953494e-01 
3.102500000000e+01 6.038048953494e-01 
3.102500000000e+01 6.038048953494e-01 
3.105000000000e+01 5.999107290013e-01 
3.105000000000e+01 5.999107290013e-01 
3.105000000000e+01 5.999107290013e-01 
3.105000000000e+01 5.999107290013e-01 
3.105000000000e+01 5.999107290013e-01 
3.107500000000e+01 5.961217113309e-01 
3.107500000000e+01 5.961217113309e-01 
3.107500000000e+01 5.961217113309e-01 
3.107500000000e+01 5.961217113309e-01 
3.107500000000e+01 5.961217113309e-01 
3.110000000000e+01 5.924330900627e-01 
3.110000000000e+01 5.924330900627e-01 
3.110000000000e+01 5.924330900627e-01 
3.110000000000e+01 5.924330900627e-01 
3.110000000000e+01 5.924330900627e-01 
3.112500000000e+01 5.888404071392e-01 
3.112500000000e+01 5.888404071392e-01 
3.112500000000e+01 5.888404071392e-01 
3.112500000000e+01 5.888404071392e-01 
3.112500000000e+01 5.888404071392e-01 
3.115000000000e+01 5.853394760078e-01 
3.115000000000e+01 5.853394760078e-01 
3.115000000000e+01 5.853394760078e-01 
3.115000000000e+01 5.853394760078e-01 
3.115000000000e+01 5.853394760078e-01 
3.117500000000e+01 5.819263609758e-01 
3.117500000000e+01 5.819263609758e-01 
3.117500000000e+01 5.819263609758e-01 
3.117500000000e+01 5.819263609758e-01 
3.117500000000e+01 5.819263609758e-01 
3.120000000000e+01 5.785973584173e-01 
3.120000000000e+01 5.785973584173e-01 
3.120000000000e+01 5.785973584173e-01 
3.120000000000e+01 5.785973584173e-01 
3.120000000000e+01 5.785973584173e-01 
3.122500000000e+01 5.753489796460e-01 
3.122500000000e+01 5.753489796460e-01 
3.122500000000e+01 5.753489796460e-01 
3.122500000000e+01 5.753489796460e-01 
3.122500000000e+01 5.753489796460e-01 
3.125000000000e+01 5.721779352840e-01 
3.125000000000e+01 5.721779352840e-01 
3.125000000000e+01 5.721779352840e-01 
3.125000000000e+01 5.721779352840e-01 
3.125000000000e+01 5.721779352840e-01 
3.127500000000e+01 5.690811209785e-01 
3.127500000000e+01 5.690811209785e-01 
3.127500000000e+01 5.690811209785e-01 
3.127500000000e+01 5.690811209785e-01 
3.127500000000e+01 5.690811209785e-01 
3.130000000000e+01 5.660556043336e-01 
3.130000000000e+01 5.660556043336e-01 
3.130000000000e+01 5.660556043336e-01 
3.130000000000e+01 5.660556043336e-01 
3.130000000000e+01 5.660556043336e-01 
3.132500000000e+01 5.630986129391e-01 
3.132500000000e+01 5.630986129391e-01 
3.132500000000e+01 5.630986129391e-01 
3.132500000000e+01 5.630986129391e-01 
3.132500000000e+01 5.630986129391e-01 
3.135000000000e+01 5.602075233904e-01 
3.135000000000e+01 5.602075233904e-01 
3.135000000000e+01 5.602075233904e-01 
3.135000000000e+01 5.602075233904e-01 
3.135000000000e+01 5.602075233904e-01 
3.137500000000e+01 5.573798512060e-01 
3.137500000000e+01 5.573798512060e-01 
3.137500000000e+01 5.573798512060e-01 
3.137500000000e+01 5.573798512060e-01 
3.137500000000e+01 5.573798512060e-01 
3.140000000000e+01 5.546132415581e-01 
3.140000000000e+01 5.546132415581e-01 
3.140000000000e+01 5.546132415581e-01 
3.140000000000e+01 5.546132415581e-01 
3.140000000000e+01 5.546132415581e-01 
3.142500000000e+01 5.519054607414e-01 
3.142500000000e+01 5.519054607414e-01 
3.142500000000e+01 5.519054607414e-01 
3.142500000000e+01 5.519054607414e-01 
3.142500000000e+01 5.519054607414e-01 
3.145000000000e+01 5.492543883110e-01 
3.145000000000e+01 5.492543883110e-01 
3.145000000000e+01 5.492543883110e-01 
3.145000000000e+01 5.492543883110e-01 
3.145000000000e+01 5.492543883110e-01 
3.147500000000e+01 5.466580098318e-01 
3.147500000000e+01 5.466580098318e-01 
3.147500000000e+01 5.466580098318e-01 
3.147500000000e+01 5.466580098318e-01 
3.147500000000e+01 5.466580098318e-01 
3.150000000000e+01 5.441144101810e-01 
3.150000000000e+01 5.441144101810e-01 
3.150000000000e+01 5.441144101810e-01 
3.150000000000e+01 5.441144101810e-01 
3.150000000000e+01 5.441144101810e-01 
3.152500000000e+01 5.416217673588e-01 
3.152500000000e+01 5.416217673588e-01 
3.152500000000e+01 5.416217673588e-01 
3.152500000000e+01 5.416217673588e-01 
3.152500000000e+01 5.416217673588e-01 
3.155000000000e+01 5.391783467591e-01 
3.155000000000e+01 5.391783467591e-01 
3.155000000000e+01 5.391783467591e-01 
3.155000000000e+01 5.391783467591e-01 
3.155000000000e+01 5.391783467591e-01 
3.157500000000e+01 5.367824958643e-01 
3.157500000000e+01 5.367824958643e-01 
3.157500000000e+01 5.367824958643e-01 
3.157500000000e+01 5.367824958643e-01 
3.157500000000e+01 5.367824958643e-01 
3.160000000000e+01 5.344326393247e-01 
3.160000000000e+01 5.344326393247e-01 
3.160000000000e+01 5.344326393247e-01 
3.160000000000e+01 5.344326393247e-01 
3.160000000000e+01 5.344326393247e-01 
3.162500000000e+01 5.321272743928e-01 
3.162500000000e+01 5.321272743928e-01 
3.162500000000e+01 5.321272743928e-01 
3.162500000000e+01 5.321272743928e-01 
3.162500000000e+01 5.321272743928e-01 
3.165000000000e+01 5.298649666811e-01 
3.165000000000e+01 5.298649666811e-01 
3.165000000000e+01 5.298649666811e-01 
3.165000000000e+01 5.298649666811e-01 
3.165000000000e+01 5.298649666811e-01 
3.167500000000e+01 5.276443462180e-01 
3.167500000000e+01 5.276443462180e-01 
3.167500000000e+01 5.276443462180e-01 
3.167500000000e+01 5.276443462180e-01 
3.167500000000e+01 5.276443462180e-01 
3.170000000000e+01 5.254641037767e-01 
3.170000000000e+01 5.254641037767e-01 
3.170000000000e+01 5.254641037767e-01 
3.170000000000e+01 5.254641037767e-01 
3.170000000000e+01 5.254641037767e-01 
3.172500000000e+01 5.233229874560e-01 
3.172500000000e+01 5.233229874560e-01 
3.172500000000e+01 5.233229874560e-01 
3.172500000000e+01 5.233229874560e-01 
3.172500000000e+01 5.233229874560e-01 
3.175000000000e+01 5.212197994921e-01 
3.175000000000e+01 5.212197994921e-01 
3.175000000000e+01 5.212197994921e-01 
3.175000000000e+01 5.212197994921e-01 
3.175000000000e+01 5.212197994921e-01 
3.177500000000e+01 5.191533932842e-01 
3.177500000000e+01 5.191533932842e-01 
3.177500000000e+01 5.191533932842e-01 
3.177500000000e+01 5.191533932842e-01 
3.177500000000e+01 5.191533932842e-01 
3.180000000000e+01 5.171226706164e-01 
3.180000000000e+01 5.171226706164e-01 
3.180000000000e+01 5.171226706164e-01 
3.180000000000e+01 5.171226706164e-01 
3.180000000000e+01 5.171226706164e-01 
3.182500000000e+01 5.151265790614e-01 
3.182500000000e+01 5.151265790614e-01 
3.182500000000e+01 5.151265790614e-01 
3.182500000000e+01 5.151265790614e-01 
3.182500000000e+01 5.151265790614e-01 
3.185000000000e+01 5.131641095520e-01 
3.185000000000e+01 5.131641095520e-01 
3.185000000000e+01 5.131641095520e-01 
3.185000000000e+01 5.131641095520e-01 
3.185000000000e+01 5.131641095520e-01 
3.187500000000e+01 5.112342941078e-01 
3.187500000000e+01 5.112342941078e-01 
3.187500000000e+01 5.112342941078e-01 
3.187500000000e+01 5.112342941078e-01 
3.187500000000e+01 5.112342941078e-01 
3.190000000000e+01 5.093362037054e-01 
3.190000000000e+01 5.093362037054e-01 
3.190000000000e+01 5.093362037054e-01 
3.190000000000e+01 5.093362037054e-01 
3.190000000000e+01 5.093362037054e-01 
3.192500000000e+01 5.074689462822e-01 
3.192500000000e+01 5.074689462822e-01 
3.192500000000e+01 5.074689462822e-01 
3.192500000000e+01 5.074689462822e-01 
3.192500000000e+01 5.074689462822e-01 
3.195000000000e+01 5.056316648631e-01 
3.195000000000e+01 5.056316648631e-01 
3.195000000000e+01 5.056316648631e-01 
3.195000000000e+01 5.056316648631e-01 
3.195000000000e+01 5.056316648631e-01 
3.197500000000e+01 5.038235358020e-01 
3.197500000000e+01 5.038235358020e-01 
3.197500000000e+01 5.038235358020e-01 
3.197500000000e+01 5.038235358020e-01 
3.197500000000e+01 5.038235358020e-01 
3.200000000000e+01 5.013954222736e-01 
3.200000000000e+01 5.013979987793e-01 
3.200000000000e+01 5.013992856265e-01 
3.200000000000e+01 5.013967109947e-01 
3.200000000000e+01 5.014005715356e-01 
3.287809515481e+01 4.521937516859e-01 
3.287909549709e+01 4.521479279757e-01 
3.288009583937e+01 4.521021239303e-01 
3.288109618166e+01 4.520563395353e-01 
3.288209652394e+01 4.520105747767e-01 
3.375619030961e+01 4.196999090082e-01 
3.375819099418e+01 4.196362293060e-01 
3.376019167875e+01 4.195725935331e-01 
3.376219236331e+01 4.195090016372e-01 
3.376419304788e+01 4.194454535658e-01 
3.463428546442e+01 3.957011729534e-01 
3.463728649127e+01 3.956288339947e-01 
3.464028751812e+01 3.955565562003e-01 
3.464328854497e+01 3.954843394802e-01 
3.464628957182e+01 3.954121837447e-01 
3.551238061922e+01 3.769633601762e-01 
3.551638198836e+01 3.768866210300e-01 
3.552038335749e+01 3.768099549036e-01 
3.552438472662e+01 3.767333616761e-01 
3.552838609576e+01 3.766568412266e-01 
3.639047577403e+01 3.617457136566e-01 
3.639547748545e+01 3.616667570293e-01 
3.640047919686e+01 3.615878816250e-01 
3.640548090828e+01 3.615090872982e-01 
3.641048261970e+01 3.614303739034e-01 
 TITLE = "Profiles along polylines"
 VARIABLES = "DIST" "SATURATION1" 
 ZONE T="TIME=1.797693134862e+308"
1.390475774029e+00 1.000000000000e+00 
1.395477485446e+00 1.000000000000e+00 
1.400479196864e+00 1.000000000000e+00 
1.405480908281e+00 1.000000000000e+00 
1.410482619698e+00 1.000000000000e+00 
2.344126581561e+00 1.000000000000e+00 
2.348961569264e+00 1.000000000000e+00 
2.353796556968e+00 1.000000000000e+00 
2.358631544671e+00 1.000000000000e+00 
2.363466532375e+00 1.000000000000e+00 
3.297777389093e+00 1.000000000000e+00 
3.302445653082e+00 1.000000000000e+00 
3.307113917072e+00 1.000000000000e+00 
3.311782181061e+00 1.000000000000e+00 
3.316450445051e+00 1.000000000000e+00 
4.251428196626e+00 1.000000000000e+00 
4.255929736901e+00 1.000000000000e+00 
4.260431277177e+00 1.000000000000e+00 
4.264932817453e+00 1.000000000000e+00 
4.269434357728e+00 1.000000000000e+00 
5.205079004158e+00 1.000000000000e+00 
5.209413820720e+00 1.000000000000e+00 
5.213748637282e+00 1.000000000000e+00 
5.218083453843e+00 1.000000000000e+00 
5.222418270405e+00 1.000000000000e+00 
6.158729811690e+00 1.000000000000e+00 
6.162897904538e+00 1.000000000000e+00 
6.167065997385e+00 1.000000000000e+00 
6.171234090233e+00 1.000000000000e+00 
6.175402183081e+00 1.000000000000e+00 
7.112380619221e+00 1.000000000000e+00 
7.116381988355e+00 1.000000000000e+00 
7.120383357489e+00 1.000000000000e+00 
7.124384726623e+00 1.000000000000e+00 
7.128386095757e+00 1.000000000000e+00 
8.066031426753e+00 1.000000000000e+00 
8.069866072173e+00 1.000000000000e+00 
8.073700717593e+00 1.000000000000e+00 
8.077535363013e+00 1.000000000000e+00 
8.081370008433e+00 1.000000000000e+00 
9.019682234284e+00 1.000000000000e+00 
9.023350155991e+00 1.000000000000e+00 
9.027018077697e+00 1.000000000000e+00 
9.030685999403e+00 1.000000000000e+00 
9.034353921109e+00 1.000000000000e+00 
9.973333041814e+00 1.000000000000e+00 
9.976834239806e+00 1.000000000000e+00 
9.980335437798e+00 1.000000000000e+00 
9.983836635790e+00 1.000000000000e+00 
9.987337833782e+00 1.000000000000e+00 
1.092698384934e+01 1.000000000000e+00 
1.093031832362e+01 1.000000000000e+00 
1.093365279790e+01 1.000000000000e+00 
1.093698727218e+01 1.000000000000e+00 
1.094032174646e+01 1.000000000000e+00 
1.188063465687e+01 1.000000000000e+00 
1.188380240744e+01 1.000000000000e+00 
1.188697015800e+01 1.000000000000e+00 
1.189013790856e+01 1.000000000000e+00 
1.189330565913e+01 1.000000000000e+00 
1.283428546440e+01 1.000000000000e+00 
1.283728649125e+01 1.000000000000e+00 
1.284028751810e+01 1.000000000000e+00 
1.284328854495e+01 1.000000000000e+00 
1.284628957180e+01 1.000000000000e+00 
1.378793627193e+01 1.000000000000e+00 
1.379077057507e+01 1.000000000000e+00 
1.379360487820e+01 1.000000000000e+00 
1.379643918134e+01 1.000000000000e+00 
1.379927348448e+01 1.000000000000e+00 
1.474158707946e+01 1.000000000000e+00 
1.474425465888e+01 1.000000000000e+00 
1.474692223830e+01 1.000000000000e+00 
1.474958981773e+01 1.000000000000e+00 
1.475225739715e+01 1.000000000000e+00 
1.569523788699e+01 1.000000000000e+00 
1.569773874270e+01 1.000000000000e+00 
1.570023959841e+01 1.000000000000e+00 
1.570274045411e+01 1.000000000000e+00 
1.570524130982e+01 1.000000000000e+00 
1.664888869452e+01 1.000000000000e+00 
1.665122282652e+01 1.000000000000e+00 
1.665355695851e+01 1.000000000000e+00 
1.665589109051e+01 1.000000000000e+00 
1.665822522250e+01 1.000000000000e+00 
1.760253950206e+01 1.000000000000e+00 
1.760470691034e+01 1.000000000000e+00 
1.760687431862e+01 1.000000000000e+00 
1.760904172690e+01 1.000000000000e+00 
1.761120913518e+01 1.000000000000e+00 
1.855619030959e+01 1.000000000000e+00 
1.855819099416e+01 1.000000000000e+00 
1.856019167872e+01 1.000000000000e+00 
1.856219236329e+01 1.000000000000e+00 
1.856419304786e+01 1.000000000000e+00 
1.950984111712e+01 1.000000000000e+00 
1.951167507798e+01 1.000000000000e+00 
1.951350903883e+01 1.000000000000e+00 
1.951534299968e+01 1.000000000000e+00 
1.951717696054e+01 1.000000000000e+00 
2.046349192466e+01 1.000000000000e+00 
2.046515916180e+01 1.000000000000e+00 
2.046682639894e+01 1.000000000000e+00 
2.046849363608e+01 1.000000000000e+00 
2.047016087322e+01 1.000000000000e+00 
2.141714273219e+01 1.000000000000e+00 
2.141864324562e+01 1.000000000000e+00 
2.142014375904e+01 1.000000000000e+00 
2.142164427247e+01 1.000000000000e+00 
2.142314478589e+01 1.000000000000e+00 
2.237079353973e+01 1.000000000000e+00 
2.237212732944e+01 1.000000000000e+00 
2.237346111915e+01 1.000000000000e+00 
2.237479490886e+01 1.000000000000e+00 
2.237612869857e+01 1.000000000000e+00 
2.332444434726e+01 1.000000000000e+00 
2.332561141326e+01 1.000000000000e+00 
2.332677847926e+01 1.000000000000e+00 
2.332794554525e+01 1.000000000000e+00 
2.332911261125e+01 1.000000000000e+00 
2.427809515480e+01 1.000000000000e+00 
2.427909549708e+01 1.000000000000e+00 
2.428009583936e+01 1.000000000000e+00 
2.428109618165e+01 1.000000000000e+00 
2.428209652393e+01 1.000000000000e+00 
2.523174596233e+01 1.000000000000e+00 
2.523257958090e+01 1.000000000000e+00 
2.523341319947e+01 1.000000000000e+00 
2.523424681804e+01 1.000000000000e+00 
2.523508043661e+01 1.000000000000e+00 
2.618539676986e+01 1.000000000000e+00 
2.618606366472e+01 1.000000000000e+00 
2.618673055957e+01 1.000000000000e+00 
2.618739745443e+01 1.000000000000e+00 
2.618806434929e+01 1.000000000000e+00 
2.713904757740e+01 1.000000000000e+00 
2.713954774854e+01 1.000000000000e+00 
2.714004791968e+01 1.000000000000e+00 
2.714054809082e+01 1.000000000000e+00 
2.714104826196e+01 1.000000000000e+00 
2.809269838493e+01 1.000000000000e+00 
2.809303183236e+01 1.000000000000e+00 
2.809336527979e+01 1.000000000000e+00 
2.809369872722e+01 1.000000000000e+00 
2.809403217464e+01 1.000000000000e+00 
2.904634919247e+01 1.000000000000e+00 
2.904651591618e+01 1.000000000000e+00 
2.904668263989e+01 1.000000000000e+00 
2.904684936361e+01 1.000000000000e+00 
2.904701608732e+01 1.000000000000e+00 
3.000000000000e+01 1.000000000000e+00 
3.000000000000e+01 1.000000000000e+00 
3.000000000000e+01 1.000000000000e+00 
3.000000000000e+01 1.000000000000e+00 
3.000000000000e+01 1.000000000000e+00 
3.002500000000e+01 1.000000000000e+00 
3.002500000000e+01 1.000000000000e+00 
3.002500000000e+01 1.000000000000e+00 
3.002500000000e+01 1.000000000000e+00 
3.002500000000e+01 1.000000000000e+00 
3.005000000000e+01 1.000000000000e+00 
3.005000000000e+01 1.000000000000e+00 
3.005000000000e+01 1.000000000000e+00 
3.005000000000e+01 1.000000000000e+00 
3.005000000000e+01 1.000000000000e+00 
3.007500000000e+01 1.000000000000e+00 
3.007500000000e+01 1.000000000000e+00 
3.007500000000e+01 1.000000000000e+00 
3.007500000000e+01 1.000000000000e+00 
3.007500000000e+01 1.000000000000e+00 
3.010000000000e+01 1.000000000000e+00 
3.010000000000e+01 1.000000000000e+00 
3.010000000000e+01 1.000000000000e+00 
3.010000000000e+01 1.000000000000e+00 
3.010000000000e+01 1.000000000000e+00 
3.012500000000e+01 1.000000000000e+00 
3.012500000000e+01 1.000000000000e+00 
3.012500000000e+01 1.000000000000e+00 
3.012500000000e+01 1.000000000000e+00 
3.012500000000e+01 1.000000000000e+00 
3.015000000000e+01 1.000000000000e+00 
3.015000000000e+01 1.000000000000e+00 
3.015000000000e+01 1.000000000000e+00 