 TITLE = "Profiles along polylines"
 VARIABLES = "DIST" "SATURATION1" 
 ZONE T="TIME=0.000000000000e+00"
0.000000000000e+00 1.000000000000e+00 
6.309419576500e-01 1.000000000000e+00 
1.255574498818e+00 1.000000000000e+00 
1.873960714808e+00 1.000000000000e+00 
2.486163068583e+00 1.000000000000e+00 
3.092243398292e+00 1.000000000000e+00 
3.692262925377e+00 1.000000000000e+00 
4.286282257819e+00 1.000000000000e+00 
4.874361393554e+00 1.000000000000e+00 
5.456559737009e+00 1.000000000000e+00 
6.032936097574e+00 1.000000000000e+00 
6.603548697060e+00 1.000000000000e+00 
7.168455172392e+00 1.000000000000e+00 
7.727712582899e+00 1.000000000000e+00 
8.281377417235e+00 1.000000000000e+00 
8.829505600410e+00 1.000000000000e+00 
9.372152504958e+00 1.000000000000e+00 
9.909372939576e+00 1.000000000000e+00 
1.044122116975e+01 1.000000000000e+00 
1.096775091871e+01 1.000000000000e+00 
1.148901537033e+01 1.000000000000e+00 
1.200506717923e+01 1.000000000000e+00 
1.251595846821e+01 1.000000000000e+00 
1.302174084321e+01 1.000000000000e+00 
1.352246539472e+01 1.000000000000e+00 
1.401818269913e+01 1.000000000000e+00 
1.450894282899e+01 1.000000000000e+00 
1.499479535855e+01 1.000000000000e+00 
1.547578936484e+01 1.000000000000e+00 
1.595197343307e+01 1.000000000000e+00 
1.642339566196e+01 1.000000000000e+00 
1.689010366901e+01 1.000000000000e+00 
1.735214459558e+01 1.000000000000e+00 
1.780956511195e+01 1.000000000000e+00 
1.826241142222e+01 1.000000000000e+00 
1.871072926918e+01 1.000000000000e+00 
1.915456393904e+01 1.000000000000e+00 
1.959396026157e+01 1.000000000000e+00 
2.002896261924e+01 1.000000000000e+00 
2.045961495161e+01 1.000000000000e+00 
2.088596075978e+01 1.000000000000e+00 
2.130804311059e+01 1.000000000000e+00 
2.172590463641e+01 1.000000000000e+00 
2.213958754826e+01 1.000000000000e+00 
2.254913363059e+01 1.000000000000e+00 
2.295458425069e+01 1.000000000000e+00 
2.335598036530e+01 1.000000000000e+00 
2.375336252157e+01 1.000000000000e+00 
2.414677085528e+01 1.000000000000e+00 
2.453624510432e+01 1.000000000000e+00 
2.492182461094e+01 1.000000000000e+00 
2.530354832193e+01 1.000000000000e+00 
2.568145479587e+01 1.000000000000e+00 
2.605558220657e+01 1.000000000000e+00 
2.642596834625e+01 1.000000000000e+00 
2.679265062422e+01 1.000000000000e+00 
2.715566607898e+01 1.000000000000e+00 
2.751505137660e+01 1.000000000000e+00 
2.787084281845e+01 1.000000000000e+00 
2.822307634796e+01 1.000000000000e+00 
2.857178754480e+01 1.000000000000e+00 
2.891701162749e+01 1.000000000000e+00 
2.925878346974e+01 1.000000000000e+00 
2.959713759330e+01 1.000000000000e+00 
2.993210817615e+01 1.000000000000e+00 
3.026372905334e+01 1.000000000000e+00 
3.059203372075e+01 1.000000000000e+00 
3.091705534092e+01 1.000000000000e+00 
3.123882674631e+01 1.000000000000e+00 
3.155738043971e+01 1.000000000000e+00 
3.187274859355e+01 1.000000000000e+00 
3.218496306457e+01 1.000000000000e+00 
3.249405539135e+01 1.000000000000e+00 
3.280005679622e+01 1.000000000000e+00 
3.310299818707e+01 1.000000000000e+00 
3.340291016366e+01 1.000000000000e+00 
3.369982301923e+01 1.000000000000e+00 
3.399376674668e+01 1.000000000000e+00 
3.428477104003e+01 1.000000000000e+00 
3.457286529154e+01 1.000000000000e+00 
3.485807859763e+01 1.000000000000e+00 
3.514043976929e+01 1.000000000000e+00 
3.541997732867e+01 1.000000000000e+00 
3.569671951104e+01 1.000000000000e+00 
3.597069427381e+01 1.000000000000e+00 
3.624192928974e+01 1.000000000000e+00 
3.651045195665e+01 1.000000000000e+00 
3.677628939838e+01 1.000000000000e+00 
3.703946846595e+01 1.000000000000e+00 
3.730001574285e+01 1.000000000000e+00 
3.755795754602e+01 1.000000000000e+00 
3.781331993109e+01 1.000000000000e+00 
3.806612869319e+01 1.000000000000e+00 
3.831640936763e+01 1.000000000000e+00 
3.856418723513e+01 1.000000000000e+00 
3.880948732236e+01 1.000000000000e+00 
3.905233440706e+01 1.000000000000e+00 
3.929275302298e+01 1.000000000000e+00 
3.953076745137e+01 1.000000000000e+00 
3.976640173497e+01 1.000000000000e+00 
3.999967967818e+01 1.000000000000e+00 
4.023062484306e+01 1.000000000000e+00 
4.045926055401e+01 1.000000000000e+00 
4.068560990707e+01 1.000000000000e+00 
4.090969576990e+01 1.000000000000e+00 
4.113154077307e+01 1.000000000000e+00 
4.135116732364e+01 1.000000000000e+00 
4.156859760962e+01 1.000000000000e+00 
4.178385359541e+01 1.000000000000e+00 
4.199695702184e+01 1.000000000000e+00 
4.220792941056e+01 1.000000000000e+00 
4.241679207291e+01 1.000000000000e+00 
4.262356610959e+01 1.000000000000e+00 
4.282827240605e+01 1.000000000000e+00 
4.303093164118e+01 1.000000000000e+00 
4.323156428694e+01 1.000000000000e+00 
4.343019060359e+01 1.000000000000e+00 
4.362683065246e+01 1.000000000000e+00 
4.382150430172e+01 1.000000000000e+00 
4.401423121769e+01 1.000000000000e+00 
4.420503086325e+01 1.000000000000e+00 
4.439392251066e+01 1.000000000000e+00 
4.458092524236e+01 1.000000000000e+00 
4.476605794925e+01 1.000000000000e+00 
4.494933932822e+01 1.000000000000e+00 
4.513078789101e+01 1.000000000000e+00 
4.531042196729e+01 1.000000000000e+00 
4.548825970605e+01 1.000000000000e+00 
4.566431907053e+01 1.000000000000e+00 
4.583861784166e+01 1.000000000000e+00 
4.601117362396e+01 1.000000000000e+00 
4.618200384511e+01 1.000000000000e+00 
4.635112576390e+01 1.000000000000e+00 
4.651855646466e+01 1.000000000000e+00 
4.668431285618e+01 1.000000000000e+00 
4.684841168495e+01 1.000000000000e+00 
4.701086952767e+01 1.000000000000e+00 
4.717170279204e+01 1.000000000000e+00 
4.733092772362e+01 1.000000000000e+00 
4.748856040481e+01 1.000000000000e+00 
4.764461675807e+01 1.000000000000e+00 
4.779911254916e+01 1.000000000000e+00 
4.795206338129e+01 1.000000000000e+00 
4.810348470289e+01 1.000000000000e+00 
4.825339181508e+01 1.000000000000e+00 
4.840179985678e+01 1.000000000000e+00 
4.854872381696e+01 1.000000000000e+00 
4.869417853743e+01 1.000000000000e+00 
4.883817871152e+01 1.000000000000e+00 
4.898073888208e+01 1.000000000000e+00 
4.912187345071e+01 1.000000000000e+00 
4.926159667724e+01 1.000000000000e+00 
4.939992267246e+01 1.000000000000e+00 
4.953686540363e+01 1.000000000000e+00 
4.967243870789e+01 1.000000000000e+00 
4.980665627868e+01 1.000000000000e+00 
4.993953167226e+01 1.000000000000e+00 
5.007107831114e+01 1.000000000000e+00 
5.020130948645e+01 1.000000000000e+00 
5.033023835142e+01 1.000000000000e+00 
5.045787792802e+01 1.000000000000e+00 
5.058424110760e+01 1.000000000000e+00 
5.070934065408e+01 1.000000000000e+00 
5.083318920624e+01 1.000000000000e+00 
5.095579927155e+01 1.000000000000e+00 
5.107718323753e+01 1.000000000000e+00 
5.119735336526e+01 1.000000000000e+00 
5.131632179198e+01 1.000000000000e+00 
5.143410053342e+01 1.000000000000e+00 
5.155070148633e+01 1.000000000000e+00 
5.166613643079e+01 1.000000000000e+00 
5.178041702334e+01 1.000000000000e+00 
5.189355480987e+01 1.000000000000e+00 
5.200556122037e+01 1.000000000000e+00 
5.211644756527e+01 1.000000000000e+00 
5.222622504532e+01 1.000000000000e+00 
5.233490474913e+01 1.000000000000e+00 
5.244249765745e+01 1.000000000000e+00 
5.254901463690e+01 1.000000000000e+00 
5.265446644619e+01 1.000000000000e+00 
5.275886374073e+01 1.000000000000e+00 
5.286221706172e+01 1.000000000000e+00 
5.296453684737e+01 1.000000000000e+00 
5.306583343487e+01 1.000000000000e+00 
5.316611705806e+01 1.000000000000e+00 
5.326539784491e+01 1.000000000000e+00 
5.336368582425e+01 1.000000000000e+00 
5.346099092754e+01 1.000000000000e+00 
5.355732297761e+01 1.000000000000e+00 
5.365269170411e+01 1.000000000000e+00 
5.374710674534e+01 1.000000000000e+00 
5.384057763677e+01 1.000000000000e+00 
5.393311381755e+01 1.000000000000e+00 
5.402472463681e+01 1.000000000000e+00 
5.411541934658e+01 1.000000000000e+00 
5.420520710821e+01 1.000000000000e+00 
5.429409699415e+01 1.000000000000e+00 
5.438209798078e+01 1.000000000000e+00 
5.446921895934e+01 1.000000000000e+00 
5.455546872853e+01 1.000000000000e+00 
5.464085599656e+01 1.000000000000e+00 
5.472538939167e+01 1.000000000000e+00 
5.480907745498e+01 1.000000000000e+00 
5.489192863764e+01 1.000000000000e+00 
5.497395130722e+01 1.000000000000e+00 
5.505515375367e+01 1.000000000000e+00 
5.513554417759e+01 1.000000000000e+00 
5.521513069649e+01 1.000000000000e+00 
5.529392135081e+01 1.000000000000e+00 
5.537192409658e+01 1.000000000000e+00 
5.544914681159e+01 1.000000000000e+00 
5.552559730137e+01 1.000000000000e+00 
5.560128328727e+01 1.000000000000e+00 
5.567621241264e+01 1.000000000000e+00 
5.575039224878e+01 1.000000000000e+00 
5.582383028748e+01 1.000000000000e+00 
5.589653394258e+01 1.000000000000e+00 
5.596851056048e+01 1.000000000000e+00 
5.603976741252e+01 1.000000000000e+00 
5.611031169656e+01 1.000000000000e+00 
5.618015053832e+01 1.000000000000e+00 
5.624929098850e+01 1.000000000000e+00 
5.631774003304e+01 1.000000000000e+00 
5.638550459011e+01 1.000000000000e+00 
5.645259150240e+01 1.000000000000e+00 
5.651900754321e+01 1.000000000000e+00 
5.658475942665e+01 1.000000000000e+00 
5.664985379100e+01 1.000000000000e+00 
5.671429720923e+01 1.000000000000e+00 
5.677809619459e+01 1.000000000000e+00 
5.684125718858e+01 1.000000000000e+00 
5.690378657124e+01 1.000000000000e+00 
5.696569066236e+01 1.000000000000e+00 
5.702697571377e+01 1.000000000000e+00 
5.708764791523e+01 1.000000000000e+00 
5.714771339552e+01 1.000000000000e+00 
5.720717821929e+01 1.000000000000e+00 
5.726604839278e+01 1.000000000000e+00 
5.732432986497e+01 1.000000000000e+00 
5.738202852430e+01 1.000000000000e+00 
5.743915019538e+01 1.000000000000e+00 
5.749570064921e+01 1.000000000000e+00 
5.755168559972e+01 1.000000000000e+00 
5.760711070058e+01 1.000000000000e+00 
5.766198155070e+01 1.000000000000e+00 
5.771630369100e+01 1.000000000000e+00 
5.777008260993e+01 1.000000000000e+00 
5.782332374010e+01 1.000000000000e+00 
5.787603245940e+01 1.000000000000e+00 
5.792821409206e+01 1.000000000000e+00 
5.797987390975e+01 1.000000000000e+00 
5.803101712813e+01 1.000000000000e+00 
5.808164891248e+01 1.000000000000e+00 
5.813177437854e+01 1.000000000000e+00 
5.818139858949e+01 1.000000000000e+00 
5.823052656071e+01 1.000000000000e+00 
5.827916325255e+01 1.000000000000e+00 
5.832731357546e+01 1.000000000000e+00 
5.837498239560e+01 1.000000000000e+00 
5.842217453118e+01 1.000000000000e+00 
5.846889474458e+01 1.000000000000e+00 
5.851514775231e+01 1.000000000000e+00 
5.856093823042e+01 1.000000000000e+00 
5.860627080637e+01 1.000000000000e+00 
5.865115005556e+01 1.000000000000e+00 
5.869558051131e+01 1.000000000000e+00 
5.873956666562e+01 1.000000000000e+00 
5.878311295665e+01 1.000000000000e+00 
5.882622378324e+01 1.000000000000e+00 
5.886890350107e+01 1.000000000000e+00 
5.891115642376e+01 1.000000000000e+00 
5.895298681899e+01 1.000000000000e+00 
5.899439890965e+01 1.000000000000e+00 
5.903539687898e+01 1.000000000000e+00 
5.907598486707e+01 1.000000000000e+00 
5.911616697606e+01 1.000000000000e+00 
5.915594726203e+01 1.000000000000e+00 
5.919532974488e+01 1.000000000000e+00 
5.923431840449e+01 1.000000000000e+00 
5.927291717716e+01 1.000000000000e+00 
5.931112996087e+01 1.000000000000e+00 
5.934896061606e+01 1.000000000000e+00 
5.938641296640e+01 1.000000000000e+00 
5.942349079505e+01 1.000000000000e+00 
5.946019784545e+01 1.000000000000e+00 
5.949653782661e+01 1.000000000000e+00 
5.953251440928e+01 1.000000000000e+00 
5.956813122229e+01 1.000000000000e+00 
5.960339186677e+01 1.000000000000e+00 
5.963829990772e+01 1.000000000000e+00 
5.967285886591e+01 1.000000000000e+00 
5.970707223208e+01 1.000000000000e+00 
5.974094346756e+01 1.000000000000e+00 
5.977447599142e+01 1.000000000000e+00 
5.980767319038e+01 1.000000000000e+00 
5.984053841926e+01 1.000000000000e+00 
5.987307499282e+01 1.000000000000e+00 
5.990528619992e+01 1.000000000000e+00 
5.993717529504e+01 1.000000000000e+00 
5.996874549910e+01 1.000000000000e+00 
6.000000000000e+01 1.000000000000e+00 
 TITLE = "Profiles along polylines"
 VARIABLES = "DIST" "SATURATION1" 
 ZONE T="TIME=1.797693134862e+308"
0.000000000000e+00 1.000000000000e+00 
6.309419576500e-01 1.000000000000e+00 
1.255574498818e+00 1.000000000000e+00 
1.873960714808e+00 1.000000000000e+00 
2.486163068583e+00 1.000000000000e+00 
3.092243398292e+00 1.000000000000e+00 
3.692262925377e+00 1.000000000000e+00 
4.286282257819e+00 1.000000000000e+00 
4.874361393554e+00 1.000000000000e+00 
5.456559737009e+00 1.000000000000e+00 
6.032936097574e+00 1.000000000000e+00 
6.603548697060e+00 1.000000000000e+00 
7.168455172392e+00 1.000000000000e+00 
7.727712582899e+00 1.000000000000e+00 
8.281377417235e+00 1.000000000000e+00 
8.829505600410e+00 1.000000000000e+00 
9.372152504958e+00 1.000000000000e+00 
9.909372939576e+00 1.000000000000e+00 
1.044122116975e+01 1.000000000000e+00 
1.096775091871e+01 1.000000000000e+00 
1.148901537033e+01 1.000000000000e+00 
1.200506717923e+01 1.000000000000e+00 
1.251595846821e+01 1.000000000000e+00 
1.302174084321e+01 1.000000000000e+00 
1.352246539472e+01 1.000000000000e+00 
1.401818269913e+01 1.000000000000e+00 
1.450894282899e+01 1.000000000000e+00 
1.499479535855e+01 1.000000000000e+00 
1.547578936484e+01 1.000000000000e+00 
1.595197343307e+01 1.000000000000e+00 
1.642339566196e+01 1.000000000000e+00 
1.689010366901e+01 1.000000000000e+00 
1.735214459558e+01 1.000000000000e+00 
1.780956511195e+01 1.000000000000e+00 
1.826241142222e+01 1.000000000000e+00 
1.871072926918e+01 1.000000000000e+00 
1.915456393904e+01 1.000000000000e+00 
1.959396026157e+01 1.000000000000e+00 
2.002896261924e+01 1.000000000000e+00 
2.045961495161e+01 1.000000000000e+00 
2.088596075978e+01 1.000000000000e+00 
2.130804311059e+01 1.000000000000e+00 
2.172590463641e+01 1.000000000000e+00 
2.213958754826e+01 1.000000000000e+00 
2.254913363059e+01 9.335310123924e-01 
2.295458425069e+01 8.503477365577e-01 
2.335598036530e+01 7.856642484433e-01 
2.375336252157e+01 7.352891128100e-01 
2.414677085528e+01 6.951596452497e-01 
2.453624510432e+01 6.624077141872e-01 
2.492182461094e+01 6.350980113153e-01 
2.530354832193e+01 6.119096868274e-01 
2.568145479587e+01 5.919189893730e-01 
2.605558220657e+01 5.744627536897e-01 
2.642596834625e+01 5.590530068700e-01 
2.679265062422e+01 5.453225984907e-01 
2.715566607898e+01 5.329897502505e-01 
2.751505137660e+01 5.218343663152e-01 
2.787084281845e+01 5.116818246650e-01 
2.822307634796e+01 5.023916420366e-01 
2.857178754480e+01 4.938493869537e-01 
2.891701162749e+01 4.859608033848e-01 
2.925878346974e+01 4.786474691113e-01 
2.959713759330e+01 4.718435398091e-01 
2.993210817615e+01 4.654932727406e-01 
3.026372905334e+01 4.595491198597e-01 
3.059203372075e+01 4.539702421548e-01 
3.091705534092e+01 4.487213398251e-01 
3.123882674631e+01 4.437717221464e-01 
3.155738043971e+01 4.390945612032e-01 
3.187274859355e+01 4.346662880733e-01 
3.218496306457e+01 4.304661002454e-01 
3.249405539135e+01 4.264755572469e-01 
3.280005679622e+01 4.226782461889e-01 
3.310299818707e+01 4.190595034343e-01 
3.340291016366e+01 4.156061815438e-01 
3.369982301923e+01 4.123064531427e-01 
3.399376674668e+01 4.091496449001e-01 
3.428477104003e+01 4.061260963962e-01 
3.457286529154e+01 4.032270395871e-01 
3.485807859763e+01 4.004444952839e-01 
3.514043976929e+01 3.977711839115e-01 
3.541997732867e+01 3.952004484341e-01 
3.569671951104e+01 3.927261873809e-01 
3.597069427381e+01 3.903427964227e-01 
3.624192928974e+01 3.880451174219e-01 
3.651045195665e+01 3.858283936055e-01 
3.677628939838e+01 3.836882301918e-01 
3.703946846595e+01 3.816205596452e-01 
3.730001574285e+01 3.796216108966e-01 
3.755795754602e+01 3.776878820655e-01 
3.781331993109e+01 3.758161161625e-01 
3.806612869319e+01 3.740032794548e-01 
3.831640936763e+01 3.722465421265e-01 
3.856418723513e+01 3.705432609227e-01 
3.880948732236e+01 3.688909635977e-01 
3.905233440706e+01 3.672873348919e-01 
3.929275302298e+01 3.657302038928e-01 
3.953076745137e+01 3.642175327012e-01 
3.976640173497e+01 3.627474060363e-01 
3.999967967818e+01 3.613180218951e-01 
4.023062484306e+01 3.599276830961e-01 
4.045926055401e+01 3.585747895335e-01 
4.068560990707e+01 3.572578310944e-01 
4.090969576990e+01 3.559753812476e-01 
4.113154077307e+01 3.547260912330e-01 
4.135116732364e+01 3.535086846197e-01 
4.156859760962e+01 3.523219523677e-01 
4.178385359541e+01 3.511647483437e-01 
4.199695702184e+01 3.500359851754e-01 
4.220792941056e+01 3.489346304130e-01 
4.241679207291e+01 3.478597029706e-01 
4.262356610959e+01 3.468102698889e-01 
4.282827240605e+01 3.457854433667e-01 
4.303093164118e+01 3.447843779508e-01 
4.323156428694e+01 3.438062679778e-01 
4.343019060359e+01 3.428503452256e-01 
4.362683065246e+01 3.419158766504e-01 
4.382150430172e+01 3.410021623194e-01 
4.401423121769e+01 3.401085335547e-01 
4.420503086325e+01 3.392343511739e-01 
4.439392251066e+01 3.383790037874e-01 
4.458092524236e+01 3.375419062637e-01 
4.476605794925e+01 3.367224983091e-01 
4.494933932822e+01 3.359202431446e-01 
4.513078789101e+01 3.351346262200e-01 
4.531042196729e+01 3.343651540362e-01 
4.548825970605e+01 3.336113530492e-01 
4.566431907053e+01 3.328727686710e-01 
4.583861784166e+01 3.321489642966e-01 
4.601117362396e+01 3.314395203813e-01 
4.618200384511e+01 3.307440336007e-01 
4.635112576390e+01 3.300621160259e-01 
4.651855646466e+01 3.293933944035e-01 
4.668431285618e+01 3.287375094586e-01 
4.684841168495e+01 3.280941151843e-01 
4.701086952767e+01 3.274628782507e-01 
4.717170279204e+01 3.268434774167e-01 
4.733092772362e+01 3.262356029525e-01 
4.748856040481e+01 3.256389561227e-01 
4.764461675807e+01 3.250532486833e-01 
4.779911254916e+01 3.244782024055e-01 
4.795206338129e+01 3.239135486592e-01 
4.810348470289e+01 3.233590279686e-01 
4.825339181508e+01 3.228143895932e-01 
4.840179985678e+01 3.222793912103e-01 
4.854872381696e+01 3.217537985181e-01 
4.869417853743e+01 3.212373848923e-01 
4.883817871152e+01 3.207299310749e-01 
4.898073888208e+01 3.202312248808e-01 
4.912187345071e+01 3.197410608806e-01 
4.926159667724e+01 3.192592401323e-01 
4.939992267246e+01 3.187855699496e-01 
4.953686540363e+01 3.183198636380e-01 
4.967243870789e+01 3.178619402173e-01 
4.980665627868e+01 3.174116242469e-01 
4.993953167226e+01 3.169687455939e-01 
5.007107831114e+01 3.165331392207e-01 
5.020130948645e+01 3.161046449874e-01 
5.033023835142e+01 3.156831074915e-01 
5.045787792802e+01 3.152683758728e-01 
5.058424110760e+01 3.148603036458e-01 
5.070934065408e+01 3.144587485327e-01 
5.083318920624e+01 3.140635723049e-01 
5.095579927155e+01 3.136746406603e-01 
5.107718323753e+01 3.132918230494e-01 
5.119735336526e+01 3.129149925651e-01 
5.131632179198e+01 3.125440258096e-01 
5.143410053342e+01 3.121788027672e-01 
5.155070148633e+01 3.118192066822e-01 
5.166613643079e+01 3.114651239424e-01 
5.178041702334e+01 3.111164439955e-01 
5.189355480987e+01 3.107730592093e-01 
5.200556122037e+01 3.104348647923e-01 
5.211644756527e+01 3.101017587120e-01 
5.222622504532e+01 3.097736415776e-01 
5.233490474913e+01 3.094504165628e-01 
5.244249765745e+01 3.091319893120e-01 
5.254901463690e+01 3.088182678819e-01 
5.265446644619e+01 3.085091626478e-01 
5.275886374073e+01 3.082045862192e-01 
5.286221706172e+01 3.079044534032e-01 
5.296453684737e+01 3.076086811053e-01 
5.306583343487e+01 3.073171882610e-01 
5.316611705806e+01 3.070298957821e-01 
5.326539784491e+01 3.067467265051e-01 
5.336368582425e+01 3.064676051161e-01 
5.346099092754e+01 3.061924580917e-01 
5.355732297761e+01 3.059212136794e-01 
5.365269170411e+01 3.056538018038e-01 
5.374710674534e+01 3.053901540136e-01 
5.384057763677e+01 3.051302034677e-01 
5.393311381755e+01 3.048738848729e-01 
5.402472463681e+01 3.046211344231e-01 
5.411541934658e+01 3.043718897779e-01 
5.420520710821e+01 3.041260900057e-01 
5.429409699415e+01 3.038836755402e-01 
5.438209798078e+01 3.036445881634e-01 
5.446921895934e+01 3.034087709403e-01 
5.455546872853e+01 3.031761682049e-01 
5.464085599656e+01 3.029467255214e-01 
5.472538939167e+01 3.027203896246e-01 
5.480907745498e+01 3.024971084079e-01 
5.489192863764e+01 3.022768309019e-01 
5.497395130722e+01 3.020595072286e-01 
5.505515375367e+01 3.018450885579e-01 
5.513554417759e+01 3.016335271126e-01 
5.521513069649e+01 3.014247761255e-01 
5.529392135081e+01 3.012187897992e-01 
5.537192409658e+01 3.010155233016e-01 
5.544914681159e+01 3.008149327262e-01 
5.552559730137e+01 3.006169750545e-01 
5.560128328727e+01 3.004216081657e-01 
5.567621241264e+01 3.002287907994e-01 
5.575039224878e+01 3.000384825203e-01 
5.582383028748e+01 2.998506437177e-01 
5.589653394258e+01 2.996652355831e-01 
5.596851056048e+01 2.994822200644e-01 
5.603976741252e+01 2.993015598688e-01 
5.611031169656e+01 2.991232184405e-01 
5.618015053832e+01 2.989471599420e-01 
5.624929098850e+01 2.987733492446e-01 
5.631774003304e+01 2.986017518872e-01 
5.638550459011e+01 2.984323340694e-01 
5.645259150240e+01 2.982650626562e-01 
5.651900754321e+01 2.980999051483e-01 
5.658475942665e+01 2.979368296436e-01 
5.664985379100e+01 2.977758048654e-01 
5.671429720923e+01 2.976168001233e-01 
5.677809619459e+01 2.974597852874e-01 
5.684125718858e+01 2.973047308056e-01 
5.690378657124e+01 2.971516076673e-01 
5.696569066236e+01 2.970003873887e-01 
5.702697571377e+01 2.968510420211e-01 
5.708764791523e+01 2.967035441260e-01 
5.714771339552e+01 2.965578667618e-01 
5.720717821929e+01 2.964139834821e-01 
5.726604839278e+01 2.962718683119e-01 
5.732432986497e+01 2.961314957355e-01 
5.738202852430e+01 2.959928406957e-01 
5.743915019538e+01 2.958558785925e-01 
5.749570064921e+01 2.957205852503e-01 
5.755168559972e+01 2.955869369180e-01 
5.760711070058e+01 2.954549102686e-01 
5.766198155070e+01 2.953244823779e-01 
5.771630369100e+01 2.951956307253e-01 
5.777008260993e+01 2.950683331729e-01 
5.782332374010e+01 2.949425679664e-01 
5.787603245940e+01 2.948183137258e-01 
5.792821409206e+01 2.946955494360e-01 
5.797987390975e+01 2.945742544378e-01 
5.803101712813e+01 2.944544084296e-01 
5.808164891248e+01 2.943359914480e-01 
5.813177437854e+01 2.942189838598e-01 
5.818139858949e+01 2.941033663637e-01 
5.823052656071e+01 2.939891199730e-01 
5.827916325255e+01 2.938762260275e-01 
5.832731357546e+01 2.937646661756e-01 
5.837498239560e+01 2.936544223568e-01 
5.842217453118e+01 2.935454768047e-01 
5.846889474458e+01 2.934378120604e-01 
5.851514775231e+01 2.933314109450e-01 
5.856093823042e+01 2.932262565420e-01 
5.860627080637e+01 2.931223322121e-01 
5.865115005556e+01 2.930196215966e-01 
5.869558051131e+01 2.929181085901e-01 
5.873956666562e+01 2.928177773346e-01 
5.878311295665e+01 2.927186122446e-01 
5.882622378324e+01 2.926205979693e-01 
5.886890350107e+01 2.925237193982e-01 
5.891115642376e+01 2.924279616545e-01 
5.895298681899e+01 2.923333101006e-01 
5.899439890965e+01 2.922397503317e-01 
5.903539687898e+01 2.921472681609e-01 
5.907598486707e+01 2.920558496239e-01 
5.911616697606e+01 2.919654809638e-01 
5.915594726203e+01 2.918761486463e-01 
5.919532974488e+01 2.917878393345e-01 
5.923431840449e+01 2.917005398946e-01 
5.927291717716e+01 2.916142374009e-01 
5.931112996087e+01 2.915289191210e-01 
5.934896061606e+01 2.914445725116e-01 
5.938641296640e+01 2.913611852140e-01 
5.942349079505e+01 2.912787450599e-01 
5.946019784545e+01 2.911972400667e-01 
5.949653782661e+01 2.911166584240e-01 
5.953251440928e+01 2.910369884990e-01 
5.956813122229e+01 2.909582188426e-01 
5.960339186677e+01 2.908803381555e-01 
5.963829990772e+01 2.908033353048e-01 
5.967285886591e+01 2.907271993395e-01 
5.970707223208e+01 2.906519194571e-01 
5.974094346756e+01 2.905774850003e-01 
5.977447599142e+01 2.905038854833e-01 
5.980767319038e+01 2.904311105677e-01 
5.984053841926e+01 2.903591500601e-01 
5.987307499282e+01 2.902879939276e-01 
5.990528619992e+01 2.902176322656e-01 
5.993717529504e+01 2.901480553139e-01 
5.996874549910e+01 2.900792534537e-01 
6.000000000000e+01 2.900112171638e-01 
