 TITLE = "Profiles along polylines"
 VARIABLES = "DIST" "SATURATION1" 
 ZONE T="TIME=0.000000000000e+00"
0.000000000000e+00 1.000000000000e+00 
6.309419576500e-01 1.000000000000e+00 
1.255574498818e+00 1.000000000000e+00 
1.873960714808e+00 1.000000000000e+00 
2.486163068583e+00 1.000000000000e+00 
3.092243398292e+00 1.000000000000e+00 
3.692262925377e+00 1.000000000000e+00 
4.286282257819e+00 1.000000000000e+00 
4.874361393554e+00 1.000000000000e+00 
5.456559737009e+00 1.000000000000e+00 
6.032936097574e+00 1.000000000000e+00 
6.603548697060e+00 1.000000000000e+00 
7.168455172392e+00 1.000000000000e+00 
7.727712582899e+00 1.000000000000e+00 
8.281377417235e+00 1.000000000000e+00 
8.829505600410e+00 1.000000000000e+00 
9.372152504958e+00 1.000000000000e+00 
9.909372939576e+00 1.000000000000e+00 
1.044122116975e+01 1.000000000000e+00 
1.096775091871e+01 1.000000000000e+00 
1.148901537033e+01 1.000000000000e+00 
1.200506717923e+01 1.000000000000e+00 
1.251595846821e+01 1.000000000000e+00 
1.302174084321e+01 1.000000000000e+00 
1.352246539472e+01 1.000000000000e+00 
1.401818269913e+01 1.000000000000e+00 
1.450894282899e+01 1.000000000000e+00 
1.499479535855e+01 1.000000000000e+00 
1.547578936484e+01 1.000000000000e+00 
1.595197343307e+01 1.000000000000e+00 
1.642339566196e+01 1.000000000000e+00 
1.689010366901e+01 1.000000000000e+00 
1.735214459558e+01 1.000000000000e+00 
1.780956511195e+01 1.000000000000e+00 
1.826241142222e+01 1.000000000000e+00 
1.871072926918e+01 1.000000000000e+00 
1.915456393904e+01 1.000000000000e+00 
1.959396026157e+01 1.000000000000e+00 
2.002896261924e+01 1.000000000000e+00 
2.045961495161e+01 1.000000000000e+00 
2.088596075978e+01 1.000000000000e+00 
2.130804311059e+01 1.000000000000e+00 
2.172590463641e+01 1.000000000000e+00 
2.213958754826e+01 1.000000000000e+00 
2.254913363059e+01 1.000000000000e+00 
2.295458425069e+01 1.000000000000e+00 
2.335598036530e+01 1.000000000000e+00 
2.375336252157e+01 1.000000000000e+00 
2.414677085528e+01 1.000000000000e+00 
2.453624510432e+01 1.000000000000e+00 
2.492182461094e+01 1.000000000000e+00 
2.530354832193e+01 1.000000000000e+00 
2.568145479587e+01 1.000000000000e+00 
2.605558220657e+01 1.000000000000e+00 
2.642596834625e+01 1.000000000000e+00 
2.679265062422e+01 1.000000000000e+00 
2.715566607898e+01 1.000000000000e+00 
2.751505137660e+01 1.000000000000e+00 
2.787084281845e+01 1.000000000000e+00 
2.822307634796e+01 1.000000000000e+00 
2.857178754480e+01 1.000000000000e+00 
2.891701162749e+01 1.000000000000e+00 
2.925878346974e+01 1.000000000000e+00 
2.959713759330e+01 1.000000000000e+00 
2.993210817615e+01 1.000000000000e+00 
3.026372905334e+01 1.000000000000e+00 
3.059203372075e+01 1.000000000000e+00 
3.091705534092e+01 1.000000000000e+00 
3.123882674631e+01 1.000000000000e+00 
3.155738043971e+01 1.000000000000e+00 
3.187274859355e+01 1.000000000000e+00 
3.218496306457e+01 1.000000000000e+00 
3.249405539135e+01 1.000000000000e+00 
3.280005679622e+01 1.000000000000e+00 
3.310299818707e+01 1.000000000000e+00 
3.340291016366e+01 1.000000000000e+00 
3.369982301923e+01 1.000000000000e+00 
3.399376674668e+01 1.000000000000e+00 
3.428477104003e+01 1.000000000000e+00 
3.457286529154e+01 1.000000000000e+00 
3.485807859763e+01 1.000000000000e+00 
3.514043976929e+01 1.000000000000e+00 
3.541997732867e+01 1.000000000000e+00 
3.569671951104e+01 1.000000000000e+00 
3.597069427381e+01 1.000000000000e+00 
3.624192928974e+01 1.000000000000e+00 
3.651045195665e+01 1.000000000000e+00 
3.677628939838e+01 1.000000000000e+00 
3.703946846595e+01 1.000000000000e+00 
3.730001574285e+01 1.000000000000e+00 
3.755795754602e+01 1.000000000000e+00 
3.781331993109e+01 1.000000000000e+00 
3.806612869319e+01 1.000000000000e+00 
3.831640936763e+01 1.000000000000e+00 
3.856418723513e+01 1.000000000000e+00 
3.880948732236e+01 1.000000000000e+00 
3.905233440706e+01 1.000000000000e+00 
3.929275302298e+01 1.000000000000e+00 
3.953076745137e+01 1.000000000000e+00 
3.976640173497e+01 1.000000000000e+00 
3.999967967818e+01 1.000000000000e+00 
4.023062484306e+01 1.000000000000e+00 
4.045926055401e+01 1.000000000000e+00 
4.068560990707e+01 1.000000000000e+00 
4.090969576990e+01 1.000000000000e+00 
4.113154077307e+01 1.000000000000e+00 
4.135116732364e+01 1.000000000000e+00 
4.156859760962e+01 1.000000000000e+00 
4.178385359541e+01 1.000000000000e+00 
4.199695702184e+01 1.000000000000e+00 
4.220792941056e+01 1.000000000000e+00 
4.241679207291e+01 1.000000000000e+00 
4.262356610959e+01 1.000000000000e+00 
4.282827240605e+01 1.000000000000e+00 
4.303093164118e+01 1.000000000000e+00 
4.323156428694e+01 1.000000000000e+00 
4.343019060359e+01 1.000000000000e+00 
4.362683065246e+01 1.000000000000e+00 
4.382150430172e+01 1.000000000000e+00 
4.401423121769e+01 1.000000000000e+00 
4.420503086325e+01 1.000000000000e+00 
4.439392251066e+01 1.000000000000e+00 
4.458092524236e+01 1.000000000000e+00 
4.476605794925e+01 1.000000000000e+00 
4.494933932822e+01 1.000000000000e+00 
4.513078789101e+01 1.000000000000e+00 
4.531042196729e+01 1.000000000000e+00 
4.548825970605e+01 1.000000000000e+00 
4.566431907053e+01 1.000000000000e+00 
4.583861784166e+01 1.000000000000e+00 
4.601117362396e+01 1.000000000000e+00 
4.618200384511e+01 1.000000000000e+00 
4.635112576390e+01 1.000000000000e+00 
4.651855646466e+01 1.000000000000e+00 
4.668431285618e+01 1.000000000000e+00 
4.684841168495e+01 1.000000000000e+00 
4.701086952767e+01 1.000000000000e+00 
4.717170279204e+01 1.000000000000e+00 
4.733092772362e+01 1.000000000000e+00 
4.748856040481e+01 1.000000000000e+00 
4.764461675807e+01 1.000000000000e+00 
4.779911254916e+01 1.000000000000e+00 
4.795206338129e+01 1.000000000000e+00 
4.810348470289e+01 1.000000000000e+00 
4.825339181508e+01 1.000000000000e+00 
4.840179985678e+01 1.000000000000e+00 
4.854872381696e+01 1.000000000000e+00 
4.869417853743e+01 1.000000000000e+00 
4.883817871152e+01 1.000000000000e+00 
4.898073888208e+01 1.000000000000e+00 
4.912187345071e+01 1.000000000000e+00 
4.926159667724e+01 1.000000000000e+00 
4.939992267246e+01 1.000000000000e+00 
4.953686540363e+01 1.000000000000e+00 
4.967243870789e+01 1.000000000000e+00 
4.980665627868e+01 1.000000000000e+00 
4.993953167226e+01 1.000000000000e+00 
5.007107831114e+01 1.000000000000e+00 
5.020130948645e+01 1.000000000000e+00 
5.033023835142e+01 1.000000000000e+00 
5.045787792802e+01 1.000000000000e+00 
5.058424110760e+01 1.000000000000e+00 
5.070934065408e+01 1.000000000000e+00 
5.083318920624e+01 1.000000000000e+00 
5.095579927155e+01 1.000000000000e+00 
5.107718323753e+01 1.000000000000e+00 
5.119735336526e+01 1.000000000000e+00 
5.131632179198e+01 1.000000000000e+00 
5.143410053342e+01 1.000000000000e+00 
5.155070148633e+01 1.000000000000e+00 
5.166613643079e+01 1.000000000000e+00 
5.178041702334e+01 1.000000000000e+00 
5.189355480987e+01 1.000000000000e+00 
5.200556122037e+01 1.000000000000e+00 
5.211644756527e+01 1.000000000000e+00 
5.222622504532e+01 1.000000000000e+00 
5.233490474913e+01 1.000000000000e+00 
5.244249765745e+01 1.000000000000e+00 
5.254901463690e+01 1.000000000000e+00 
5.265446644619e+01 1.000000000000e+00 
5.275886374073e+01 1.000000000000e+00 
5.286221706172e+01 1.000000000000e+00 
5.296453684737e+01 1.000000000000e+00 
5.306583343487e+01 1.000000000000e+00 
5.316611705806e+01 1.000000000000e+00 
5.326539784491e+01 1.000000000000e+00 
5.336368582425e+01 1.000000000000e+00 
5.346099092754e+01 1.000000000000e+00 
5.355732297761e+01 1.000000000000e+00 
5.365269170411e+01 1.000000000000e+00 
5.374710674534e+01 1.000000000000e+00 
5.384057763677e+01 1.000000000000e+00 
5.393311381755e+01 1.000000000000e+00 
5.402472463681e+01 1.000000000000e+00 
5.411541934658e+01 1.000000000000e+00 
5.420520710821e+01 1.000000000000e+00 
5.429409699415e+01 1.000000000000e+00 
5.438209798078e+01 1.000000000000e+00 
5.446921895934e+01 1.000000000000e+00 
5.455546872853e+01 1.000000000000e+00 
5.464085599656e+01 1.000000000000e+00 
5.472538939167e+01 1.000000000000e+00 
5.480907745498e+01 1.000000000000e+00 
5.489192863764e+01 1.000000000000e+00 
5.497395130722e+01 1.000000000000e+00 
5.505515375367e+01 1.000000000000e+00 
5.513554417759e+01 1.000000000000e+00 
5.521513069649e+01 1.000000000000e+00 
5.529392135081e+01 1.000000000000e+00 
5.537192409658e+01 1.000000000000e+00 
5.544914681159e+01 1.000000000000e+00 
5.552559730137e+01 1.000000000000e+00 
5.560128328727e+01 1.000000000000e+00 
5.567621241264e+01 1.000000000000e+00 
5.575039224878e+01 1.000000000000e+00 
5.582383028748e+01 1.000000000000e+00 
5.589653394258e+01 1.000000000000e+00 
5.596851056048e+01 1.000000000000e+00 
5.603976741252e+01 1.000000000000e+00 
5.611031169656e+01 1.000000000000e+00 
5.618015053832e+01 1.000000000000e+00 
5.624929098850e+01 1.000000000000e+00 
5.631774003304e+01 1.000000000000e+00 
5.638550459011e+01 1.000000000000e+00 
5.645259150240e+01 1.000000000000e+00 
5.651900754321e+01 1.000000000000e+00 
5.658475942665e+01 1.000000000000e+00 
5.664985379100e+01 1.000000000000e+00 
5.671429720923e+01 1.000000000000e+00 
5.677809619459e+01 1.000000000000e+00 
5.684125718858e+01 1.000000000000e+00 
5.690378657124e+01 1.000000000000e+00 
5.696569066236e+01 1.000000000000e+00 
5.702697571377e+01 1.000000000000e+00 
5.708764791523e+01 1.000000000000e+00 
5.714771339552e+01 1.000000000000e+00 
5.720717821929e+01 1.000000000000e+00 
5.726604839278e+01 1.000000000000e+00 
5.732432986497e+01 1.000000000000e+00 
5.738202852430e+01 1.000000000000e+00 
5.743915019538e+01 1.000000000000e+00 
5.749570064921e+01 1.000000000000e+00 
5.755168559972e+01 1.000000000000e+00 
5.760711070058e+01 1.000000000000e+00 
5.766198155070e+01 1.000000000000e+00 
5.771630369100e+01 1.000000000000e+00 
5.777008260993e+01 1.000000000000e+00 
5.782332374010e+01 1.000000000000e+00 
5.787603245940e+01 1.000000000000e+00 
5.792821409206e+01 1.000000000000e+00 
5.797987390975e+01 1.000000000000e+00 
5.803101712813e+01 1.000000000000e+00 
5.808164891248e+01 1.000000000000e+00 
5.813177437854e+01 1.000000000000e+00 
5.818139858949e+01 1.000000000000e+00 
5.823052656071e+01 1.000000000000e+00 
5.827916325255e+01 1.000000000000e+00 
5.832731357546e+01 1.000000000000e+00 
5.837498239560e+01 1.000000000000e+00 
5.842217453118e+01 1.000000000000e+00 
5.846889474458e+01 1.000000000000e+00 
5.851514775231e+01 1.000000000000e+00 
5.856093823042e+01 1.000000000000e+00 
5.860627080637e+01 1.000000000000e+00 
5.865115005556e+01 1.000000000000e+00 
5.869558051131e+01 1.000000000000e+00 
5.873956666562e+01 1.000000000000e+00 
5.878311295665e+01 1.000000000000e+00 
5.882622378324e+01 1.000000000000e+00 
5.886890350107e+01 1.000000000000e+00 
5.891115642376e+01 1.000000000000e+00 
5.895298681899e+01 1.000000000000e+00 
5.899439890965e+01 1.000000000000e+00 
5.903539687898e+01 1.000000000000e+00 
5.907598486707e+01 1.000000000000e+00 
5.911616697606e+01 1.000000000000e+00 
5.915594726203e+01 1.000000000000e+00 
5.919532974488e+01 1.000000000000e+00 
5.923431840449e+01 1.000000000000e+00 
5.927291717716e+01 1.000000000000e+00 
5.931112996087e+01 1.000000000000e+00 
5.934896061606e+01 1.000000000000e+00 
5.938641296640e+01 1.000000000000e+00 
5.942349079505e+01 1.000000000000e+00 
5.946019784545e+01 1.000000000000e+00 
5.949653782661e+01 1.000000000000e+00 
5.953251440928e+01 1.000000000000e+00 
5.956813122229e+01 1.000000000000e+00 
5.960339186677e+01 1.000000000000e+00 
5.963829990772e+01 1.000000000000e+00 
5.967285886591e+01 1.000000000000e+00 
5.970707223208e+01 1.000000000000e+00 
5.974094346756e+01 1.000000000000e+00 
5.977447599142e+01 1.000000000000e+00 
5.980767319038e+01 1.000000000000e+00 
5.984053841926e+01 1.000000000000e+00 
5.987307499282e+01 1.000000000000e+00 
5.990528619992e+01 1.000000000000e+00 
5.993717529504e+01 1.000000000000e+00 
5.996874549910e+01 1.000000000000e+00 
6.000000000000e+01 1.000000000000e+00 
 TITLE = "Profiles along polylines"
 VARIABLES = "DIST" "SATURATION1" 
 ZONE T="TIME=1.797693134862e+308"
0.000000000000e+00 1.000000000000e+00 
6.309419576500e-01 1.000000000000e+00 
1.255574498818e+00 1.000000000000e+00 
1.873960714808e+00 1.000000000000e+00 
2.486163068583e+00 1.000000000000e+00 
3.092243398292e+00 1.000000000000e+00 
3.692262925377e+00 1.000000000000e+00 
4.286282257819e+00 1.000000000000e+00 
4.874361393554e+00 1.000000000000e+00 
5.456559737009e+00 1.000000000000e+00 
6.032936097574e+00 1.000000000000e+00 
6.603548697060e+00 1.000000000000e+00 
7.168455172392e+00 1.000000000000e+00 
7.727712582899e+00 1.000000000000e+00 
8.281377417235e+00 1.000000000000e+00 
8.829505600410e+00 1.000000000000e+00 
9.372152504958e+00 1.000000000000e+00 
9.909372939576e+00 1.000000000000e+00 
1.044122116975e+01 1.000000000000e+00 
1.096775091871e+01 1.000000000000e+00 
1.148901537033e+01 1.000000000000e+00 
1.200506717923e+01 1.000000000000e+00 
1.251595846821e+01 1.000000000000e+00 
1.302174084321e+01 1.000000000000e+00 
1.352246539472e+01 1.000000000000e+00 
1.401818269913e+01 1.000000000000e+00 
1.450894282899e+01 1.000000000000e+00 
1.499479535855e+01 1.000000000000e+00 
1.547578936484e+01 1.000000000000e+00 
1.595197343307e+01 1.000000000000e+00 
1.642339566196e+01 1.000000000000e+00 
1.689010366901e+01 1.000000000000e+00 
1.735214459558e+01 1.000000000000e+00 
1.780956511195e+01 1.000000000000e+00 
1.826241142222e+01 1.000000000000e+00 
1.871072926918e+01 1.000000000000e+00 
1.915456393904e+01 1.000000000000e+00 
1.959396026157e+01 1.000000000000e+00 
2.002896261924e+01 1.000000000000e+00 
2.045961495161e+01 1.000000000000e+00 
2.088596075978e+01 1.000000000000e+00 
2.130804311059e+01 1.000000000000e+00 
2.172590463641e+01 1.000000000000e+00 
2.213958754826e+01 9.230029099665e-01 
2.254913363059e+01 8.412734971114e-01 
2.295458425069e+01 7.780147356471e-01 
2.335598036530e+01 7.287588553033e-01 
2.375336252157e+01 6.894738418820e-01 
2.414677085528e+01 6.573652918150e-01 
2.453624510432e+01 6.305559647242e-01 
2.492182461094e+01 6.077652870553e-01 
2.530354832193e+01 5.880969567775e-01 
2.568145479587e+01 5.709067191020e-01 
2.605558220657e+01 5.557198805913e-01 
2.642596834625e+01 5.421788132627e-01 
2.679265062422e+01 5.300087084358e-01 
2.715566607898e+01 5.189946692563e-01 
2.751505137660e+01 5.089660204981e-01 
2.787084281845e+01 4.997853231114e-01 
2.822307634796e+01 4.913405275139e-01 
2.857178754480e+01 4.835392660945e-01 
2.891701162749e+01 4.763046320414e-01 
2.925878346974e+01 4.695720099458e-01 
2.959713759330e+01 4.632866638552e-01 
2.993210817615e+01 4.574018779351e-01 
3.026372905334e+01 4.518775068957e-01 
3.059203372075e+01 4.466788337110e-01 
3.091705534092e+01 4.417756606846e-01 
3.123882674631e+01 4.371415797125e-01 
3.155738043971e+01 4.327533815152e-01 
3.187274859355e+01 4.285905736292e-01 
3.218496306457e+01 4.246349840914e-01 
3.249405539135e+01 4.208704337513e-01 
3.280005679622e+01 4.172824633851e-01 
3.310299818707e+01 4.138581051500e-01 
3.340291016366e+01 4.105856900624e-01 
3.369982301923e+01 4.074546850669e-01 
3.399376674668e+01 4.044555543815e-01 
3.428477104003e+01 4.015796410425e-01 
3.457286529154e+01 3.988190652603e-01 
3.485807859763e+01 3.961666367240e-01 
3.514043976929e+01 3.936157786747e-01 
3.541997732867e+01 3.911604620790e-01 
3.569671951104e+01 3.887951482036e-01 
3.597069427381e+01 3.865147383333e-01 
3.624192928974e+01 3.843145297806e-01 
3.651045195665e+01 3.821901770405e-01 
3.677628939838e+01 3.801376575696e-01 
3.703946846595e+01 3.781532414965e-01 
3.730001574285e+01 3.762334647074e-01 
3.755795754602e+01 3.743751049318e-01 
3.781331993109e+01 3.725751603811e-01 
3.806612869319e+01 3.708308306814e-01 
3.831640936763e+01 3.691394997890e-01 
3.856418723513e+01 3.674987206187e-01 
3.880948732236e+01 3.659062012407e-01 
3.905233440706e+01 3.643597924064e-01 
3.929275302298e+01 3.628574762801e-01 
3.953076745137e+01 3.613973563220e-01 
3.976640173497e+01 3.599776479793e-01 
3.999967967818e+01 3.585966703132e-01 
4.023062484306e+01 3.572528384051e-01 
4.045926055401e+01 3.559446563865e-01 
4.068560990707e+01 3.546707110514e-01 
4.090969576990e+01 3.534296660704e-01 
4.113154077307e+01 3.522202567393e-01 
4.135116732364e+01 3.510412850470e-01 
4.156859760962e+01 3.498916151962e-01 
4.178385359541e+01 3.487701695323e-01 
4.199695702184e+01 3.476759247733e-01 
4.220792941056e+01 3.466079085133e-01 
4.241679207291e+01 3.455651959747e-01 
4.262356610959e+01 3.445469070527e-01 
4.282827240605e+01 3.435522036039e-01 
4.303093164118e+01 3.425802868709e-01 
4.323156428694e+01 3.416303951395e-01 
4.343019060359e+01 3.407018015849e-01 
4.362683065246e+01 3.397938121910e-01 
4.382150430172e+01 3.389057638479e-01 
4.401423121769e+01 3.380370226462e-01 
4.420503086325e+01 3.371869822569e-01 
4.439392251066e+01 3.363550623580e-01 
4.458092524236e+01 3.355407072182e-01 
4.476605794925e+01 3.347433843849e-01 
4.494933932822e+01 3.339625834611e-01 
4.513078789101e+01 3.331978149139e-01 
4.531042196729e+01 3.324486089829e-01 
4.548825970605e+01 3.317145146632e-01 
4.566431907053e+01 3.309950987802e-01 
4.583861784166e+01 3.302899450848e-01 
4.601117362396e+01 3.295986533952e-01 
4.618200384511e+01 3.289208388152e-01 
4.635112576390e+01 3.282561309658e-01 
4.651855646466e+01 3.276041733147e-01 
4.668431285618e+01 3.269646225279e-01 
4.684841168495e+01 3.263371478034e-01 
4.701086952767e+01 3.257214303218e-01 
4.717170279204e+01 3.251171626967e-01 
4.733092772362e+01 3.245240484331e-01 
4.748856040481e+01 3.239418014451e-01 
4.764461675807e+01 3.233701455839e-01 
4.779911254916e+01 3.228088141920e-01 
4.795206338129e+01 3.222575497131e-01 
4.810348470289e+01 3.217161032754e-01 
4.825339181508e+01 3.211842342962e-01 
4.840179985678e+01 3.206617101872e-01 
4.854872381696e+01 3.201483059793e-01 
4.869417853743e+01 3.196438039996e-01 
4.883817871152e+01 3.191479935795e-01 
4.898073888208e+01 3.186606707783e-01 
4.912187345071e+01 3.181816380842e-01 
4.926159667724e+01 3.177107041614e-01 
4.939992267246e+01 3.172476836326e-01 
4.953686540363e+01 3.167923968298e-01 
4.967243870789e+01 3.163446695309e-01 
4.980665627868e+01 3.159043327970e-01 
4.993953167226e+01 3.154712227516e-01 
5.007107831114e+01 3.150451803812e-01 
5.020130948645e+01 3.146260513471e-01 
5.033023835142e+01 3.142136858353e-01 
5.045787792802e+01 3.138079383711e-01 
5.058424110760e+01 3.134086676608e-01 
5.070934065408e+01 3.130157364324e-01 
5.083318920624e+01 3.126290112870e-01 
5.095579927155e+01 3.122483625815e-01 
5.107718323753e+01 3.118736642639e-01 
5.119735336526e+01 3.115047937688e-01 
5.131632179198e+01 3.111416318916e-01 
5.143410053342e+01 3.107840626670e-01 
5.155070148633e+01 3.104319732533e-01 
5.166613643079e+01 3.100852538215e-01 
5.178041702334e+01 3.097437974767e-01 
5.189355480987e+01 3.094075001240e-01 
5.200556122037e+01 3.090762603934e-01 
5.211644756527e+01 3.087499795631e-01 
5.222622504532e+01 3.084285614462e-01 
5.233490474913e+01 3.081119123183e-01 
5.244249765745e+01 3.077999408276e-01 
5.254901463690e+01 3.074925579395e-01 
5.265446644619e+01 3.071896768478e-01 
5.275886374073e+01 3.068912128930e-01 
5.286221706172e+01 3.065970835287e-01 
5.296453684737e+01 3.063072082264e-01 
5.306583343487e+01 3.060215084102e-01 
5.316611705806e+01 3.057399074050e-01 
5.326539784491e+01 3.054623303886e-01 
5.336368582425e+01 3.051887043188e-01 
5.346099092754e+01 3.049189578771e-01 
5.355732297761e+01 3.046530214511e-01 
5.365269170411e+01 3.043908270432e-01 
5.374710674534e+01 3.041323082205e-01 
5.384057763677e+01 3.038774001022e-01 
5.393311381755e+01 3.036260392991e-01 
5.402472463681e+01 3.033781638558e-01 
5.411541934658e+01 3.031337132307e-01 
5.420520710821e+01 3.028926282403e-01 
5.429409699415e+01 3.026548510185e-01 
5.438209798078e+01 3.024203250003e-01 
5.446921895934e+01 3.021889948587e-01 
5.455546872853e+01 3.019608064917e-01 
5.464085599656e+01 3.017357069855e-01 
5.472538939167e+01 3.015136445558e-01 
5.480907745498e+01 3.012945685381e-01 
5.489192863764e+01 3.010784293662e-01 
5.497395130722e+01 3.008651785285e-01 
5.505515375367e+01 3.006547685259e-01 
5.513554417759e+01 3.004471528773e-01 
5.521513069649e+01 3.002422860779e-01 
5.529392135081e+01 3.000401235608e-01 
5.537192409658e+01 2.998406216924e-01 
5.544914681159e+01 2.996437377347e-01 
5.552559730137e+01 2.994494298084e-01 
5.560128328727e+01 2.992576569031e-01 
5.567621241264e+01 2.990683788409e-01 
5.575039224878e+01 2.988815562426e-01 
5.582383028748e+01 2.986971505277e-01 
5.589653394258e+01 2.985151238918e-01 
5.596851056048e+01 2.983354392635e-01 
5.603976741252e+01 2.981580603064e-01 
5.611031169656e+01 2.979829513986e-01 
5.618015053832e+01 2.978100776134e-01 
5.624929098850e+01 2.976394047116e-01 
5.631774003304e+01 2.974708991009e-01 
5.638550459011e+01 2.973045278292e-01 
5.645259150240e+01 2.971402585894e-01 
5.651900754321e+01 2.969780596913e-01 
5.658475942665e+01 2.968179000233e-01 
5.664985379100e+01 2.966597490807e-01 
5.671429720923e+01 2.965035769274e-01 
5.677809619459e+01 2.963493541710e-01 
5.684125718858e+01 2.961970519799e-01 
5.690378657124e+01 2.960466420480e-01 
5.696569066236e+01 2.958980965803e-01 
5.702697571377e+01 2.957513883014e-01 
5.708764791523e+01 2.956064904310e-01 
5.714771339552e+01 2.954633766716e-01 
5.720717821929e+01 2.953220212065e-01 
5.726604839278e+01 2.951823986767e-01 
5.732432986497e+01 2.950444841694e-01 
5.738202852430e+01 2.949082532170e-01 
5.743915019538e+01 2.947736817966e-01 
5.749570064921e+01 2.946407462973e-01 
5.755168559972e+01 2.945094235207e-01 
5.760711070058e+01 2.943796906810e-01 
5.766198155070e+01 2.942515253835e-01 
5.771630369100e+01 2.941249056263e-01 
5.777008260993e+01 2.939998097791e-01 
5.782332374010e+01 2.938762165852e-01 
5.787603245940e+01 2.937541051514e-01 
5.792821409206e+01 2.936334549397e-01 
5.797987390975e+01 2.935142457581e-01 
5.803101712813e+01 2.933964577628e-01 
5.808164891248e+01 2.932800714387e-01 
5.813177437854e+01 2.931650675925e-01 
5.818139858949e+01 2.930514273534e-01 
5.823052656071e+01 2.929391321569e-01 
5.827916325255e+01 2.928281637564e-01 
5.832731357546e+01 2.927185042060e-01 
5.837498239560e+01 2.926101358426e-01 
5.842217453118e+01 2.925030412898e-01 
5.846889474458e+01 2.923972034710e-01 
5.851514775231e+01 2.922926055816e-01 
5.856093823042e+01 2.921892310731e-01 
5.860627080637e+01 2.920870636667e-01 
5.865115005556e+01 2.919860873572e-01 
5.869558051131e+01 2.918862863860e-01 
5.873956666562e+01 2.917876452357e-01 
5.878311295665e+01 2.916901486543e-01 
5.882622378324e+01 2.915937816189e-01 
5.886890350107e+01 2.914985293402e-01 
5.891115642376e+01 2.914043772572e-01 
5.895298681899e+01 2.913113110419e-01 
5.899439890965e+01 2.912193165933e-01 
5.903539687898e+01 2.911283800229e-01 
5.907598486707e+01 2.910384876591e-01 
5.911616697606e+01 2.909496260327e-01 
5.915594726203e+01 2.908617818917e-01 
5.919532974488e+01 2.907749421763e-01 
5.923431840449e+01 2.906890940252e-01 
5.927291717716e+01 2.906042247798e-01 
5.931112996087e+01 2.905203219703e-01 
5.934896061606e+01 2.904373733114e-01 
5.938641296640e+01 2.903553666977e-01 
5.942349079505e+01 2.902742902097e-01 
5.946019784545e+01 2.901941321095e-01 
5.949653782661e+01 2.901148808267e-01 
5.953251440928e+01 2.900365249648e-01 
5.956813122229e+01 2.899590533062e-01 
5.960339186677e+01 2.898824547798e-01 
5.963829990772e+01 2.898067184769e-01 
5.967285886591e+01 2.897318336662e-01 
5.970707223208e+01 2.896577897619e-01 
5.974094346756e+01 2.895845763195e-01 
5.977447599142e+01 2.895121830621e-01 
5.980767319038e+01 2.894405998571e-01 
5.984053841926e+01 2.893698167132e-01 
5.987307499282e+01 2.892998237961e-01 
5.990528619992e+01 2.892306113966e-01 
5.993717529504e+01 2.891621699468e-01 
5.996874549910e+01 2.890944900168e-01 
6.000000000000e+01 2.890275622724e-01 
