 TITLE = "Profiles along polylines"
 VARIABLES = "DIST" "SATURATION1" 
 ZONE T="TIME=0.000000000000e+00"
0.000000000000e+00 1.000000000000e+00 
6.309419576500e-01 1.000000000000e+00 
1.255574498818e+00 1.000000000000e+00 
1.873960714808e+00 1.000000000000e+00 
2.486163068583e+00 1.000000000000e+00 
3.092243398292e+00 1.000000000000e+00 
3.692262925377e+00 1.000000000000e+00 
4.286282257819e+00 1.000000000000e+00 
4.874361393554e+00 1.000000000000e+00 
5.456559737009e+00 1.000000000000e+00 
6.032936097574e+00 1.000000000000e+00 
6.603548697060e+00 1.000000000000e+00 
7.168455172392e+00 1.000000000000e+00 
7.727712582899e+00 1.000000000000e+00 
8.281377417235e+00 1.000000000000e+00 
8.829505600410e+00 1.000000000000e+00 
9.372152504958e+00 1.000000000000e+00 
9.909372939576e+00 1.000000000000e+00 
1.044122116975e+01 1.000000000000e+00 
1.096775091871e+01 1.000000000000e+00 
1.148901537033e+01 1.000000000000e+00 
1.200506717923e+01 1.000000000000e+00 
1.251595846821e+01 1.000000000000e+00 
1.302174084321e+01 1.000000000000e+00 
1.352246539472e+01 1.000000000000e+00 
1.401818269913e+01 1.000000000000e+00 
1.450894282899e+01 1.000000000000e+00 
1.499479535855e+01 1.000000000000e+00 
1.547578936484e+01 1.000000000000e+00 
1.595197343307e+01 1.000000000000e+00 
1.642339566196e+01 1.000000000000e+00 
1.689010366901e+01 1.000000000000e+00 
1.735214459558e+01 1.000000000000e+00 
1.780956511195e+01 1.000000000000e+00 
1.826241142222e+01 1.000000000000e+00 
1.871072926918e+01 1.000000000000e+00 
1.915456393904e+01 1.000000000000e+00 
1.959396026157e+01 1.000000000000e+00 
2.002896261924e+01 1.000000000000e+00 
2.045961495161e+01 1.000000000000e+00 
2.088596075978e+01 1.000000000000e+00 
2.130804311059e+01 1.000000000000e+00 
2.172590463641e+01 1.000000000000e+00 
2.213958754826e+01 1.000000000000e+00 
2.254913363059e+01 1.000000000000e+00 
2.295458425069e+01 1.000000000000e+00 
2.335598036530e+01 1.000000000000e+00 
2.375336252157e+01 1.000000000000e+00 
2.414677085528e+01 1.000000000000e+00 
2.453624510432e+01 1.000000000000e+00 
2.492182461094e+01 1.000000000000e+00 
2.530354832193e+01 1.000000000000e+00 
2.568145479587e+01 1.000000000000e+00 
2.605558220657e+01 1.000000000000e+00 
2.642596834625e+01 1.000000000000e+00 
2.679265062422e+01 1.000000000000e+00 
2.715566607898e+01 1.000000000000e+00 
2.751505137660e+01 1.000000000000e+00 
2.787084281845e+01 1.000000000000e+00 
2.822307634796e+01 1.000000000000e+00 
2.857178754480e+01 1.000000000000e+00 
2.891701162749e+01 1.000000000000e+00 
2.925878346974e+01 1.000000000000e+00 
2.959713759330e+01 1.000000000000e+00 
2.993210817615e+01 1.000000000000e+00 
3.026372905334e+01 1.000000000000e+00 
3.059203372075e+01 1.000000000000e+00 
3.091705534092e+01 1.000000000000e+00 
3.123882674631e+01 1.000000000000e+00 
3.155738043971e+01 1.000000000000e+00 
3.187274859355e+01 1.000000000000e+00 
3.218496306457e+01 1.000000000000e+00 
3.249405539135e+01 1.000000000000e+00 
3.280005679622e+01 1.000000000000e+00 
3.310299818707e+01 1.000000000000e+00 
3.340291016366e+01 1.000000000000e+00 
3.369982301923e+01 1.000000000000e+00 
3.399376674668e+01 1.000000000000e+00 
3.428477104003e+01 1.000000000000e+00 
3.457286529154e+01 1.000000000000e+00 
3.485807859763e+01 1.000000000000e+00 
3.514043976929e+01 1.000000000000e+00 
3.541997732867e+01 1.000000000000e+00 
3.569671951104e+01 1.000000000000e+00 
3.597069427381e+01 1.000000000000e+00 
3.624192928974e+01 1.000000000000e+00 
3.651045195665e+01 1.000000000000e+00 
3.677628939838e+01 1.000000000000e+00 
3.703946846595e+01 1.000000000000e+00 
3.730001574285e+01 1.000000000000e+00 
3.755795754602e+01 1.000000000000e+00 
3.781331993109e+01 1.000000000000e+00 
3.806612869319e+01 1.000000000000e+00 
3.831640936763e+01 1.000000000000e+00 
3.856418723513e+01 1.000000000000e+00 
3.880948732236e+01 1.000000000000e+00 
3.905233440706e+01 1.000000000000e+00 
3.929275302298e+01 1.000000000000e+00 
3.953076745137e+01 1.000000000000e+00 
3.976640173497e+01 1.000000000000e+00 
3.999967967818e+01 1.000000000000e+00 
4.023062484306e+01 1.000000000000e+00 
4.045926055401e+01 1.000000000000e+00 
4.068560990707e+01 1.000000000000e+00 
4.090969576990e+01 1.000000000000e+00 
4.113154077307e+01 1.000000000000e+00 
4.135116732364e+01 1.000000000000e+00 
4.156859760962e+01 1.000000000000e+00 
4.178385359541e+01 1.000000000000e+00 
4.199695702184e+01 1.000000000000e+00 
4.220792941056e+01 1.000000000000e+00 
4.241679207291e+01 1.000000000000e+00 
4.262356610959e+01 1.000000000000e+00 
4.282827240605e+01 1.000000000000e+00 
4.303093164118e+01 1.000000000000e+00 
4.323156428694e+01 1.000000000000e+00 
4.343019060359e+01 1.000000000000e+00 
4.362683065246e+01 1.000000000000e+00 
4.382150430172e+01 1.000000000000e+00 
4.401423121769e+01 1.000000000000e+00 
4.420503086325e+01 1.000000000000e+00 
4.439392251066e+01 1.000000000000e+00 
4.458092524236e+01 1.000000000000e+00 
4.476605794925e+01 1.000000000000e+00 
4.494933932822e+01 1.000000000000e+00 
4.513078789101e+01 1.000000000000e+00 
4.531042196729e+01 1.000000000000e+00 
4.548825970605e+01 1.000000000000e+00 
4.566431907053e+01 1.000000000000e+00 
4.583861784166e+01 1.000000000000e+00 
4.601117362396e+01 1.000000000000e+00 
4.618200384511e+01 1.000000000000e+00 
4.635112576390e+01 1.000000000000e+00 
4.651855646466e+01 1.000000000000e+00 
4.668431285618e+01 1.000000000000e+00 
4.684841168495e+01 1.000000000000e+00 
4.701086952767e+01 1.000000000000e+00 
4.717170279204e+01 1.000000000000e+00 
4.733092772362e+01 1.000000000000e+00 
4.748856040481e+01 1.000000000000e+00 
4.764461675807e+01 1.000000000000e+00 
4.779911254916e+01 1.000000000000e+00 
4.795206338129e+01 1.000000000000e+00 
4.810348470289e+01 1.000000000000e+00 
4.825339181508e+01 1.000000000000e+00 
4.840179985678e+01 1.000000000000e+00 
4.854872381696e+01 1.000000000000e+00 
4.869417853743e+01 1.000000000000e+00 
4.883817871152e+01 1.000000000000e+00 
4.898073888208e+01 1.000000000000e+00 
4.912187345071e+01 1.000000000000e+00 
4.926159667724e+01 1.000000000000e+00 
4.939992267246e+01 1.000000000000e+00 
4.953686540363e+01 1.000000000000e+00 
4.967243870789e+01 1.000000000000e+00 
4.980665627868e+01 1.000000000000e+00 
4.993953167226e+01 1.000000000000e+00 
5.007107831114e+01 1.000000000000e+00 
5.020130948645e+01 1.000000000000e+00 
5.033023835142e+01 1.000000000000e+00 
5.045787792802e+01 1.000000000000e+00 
5.058424110760e+01 1.000000000000e+00 
5.070934065408e+01 1.000000000000e+00 
5.083318920624e+01 1.000000000000e+00 
5.095579927155e+01 1.000000000000e+00 
5.107718323753e+01 1.000000000000e+00 
5.119735336526e+01 1.000000000000e+00 
5.131632179198e+01 1.000000000000e+00 
5.143410053342e+01 1.000000000000e+00 
5.155070148633e+01 1.000000000000e+00 
5.166613643079e+01 1.000000000000e+00 
5.178041702334e+01 1.000000000000e+00 
5.189355480987e+01 1.000000000000e+00 
5.200556122037e+01 1.000000000000e+00 
5.211644756527e+01 1.000000000000e+00 
5.222622504532e+01 1.000000000000e+00 
5.233490474913e+01 1.000000000000e+00 
5.244249765745e+01 1.000000000000e+00 
5.254901463690e+01 1.000000000000e+00 
5.265446644619e+01 1.000000000000e+00 
5.275886374073e+01 1.000000000000e+00 
5.286221706172e+01 1.000000000000e+00 
5.296453684737e+01 1.000000000000e+00 
5.306583343487e+01 1.000000000000e+00 
5.316611705806e+01 1.000000000000e+00 
5.326539784491e+01 1.000000000000e+00 
5.336368582425e+01 1.000000000000e+00 
5.346099092754e+01 1.000000000000e+00 
5.355732297761e+01 1.000000000000e+00 
5.365269170411e+01 1.000000000000e+00 
5.374710674534e+01 1.000000000000e+00 
5.384057763677e+01 1.000000000000e+00 
5.393311381755e+01 1.000000000000e+00 
5.402472463681e+01 1.000000000000e+00 
5.411541934658e+01 1.000000000000e+00 
5.420520710821e+01 1.000000000000e+00 
5.429409699415e+01 1.000000000000e+00 
5.438209798078e+01 1.000000000000e+00 
5.446921895934e+01 1.000000000000e+00 
5.455546872853e+01 1.000000000000e+00 
5.464085599656e+01 1.000000000000e+00 
5.472538939167e+01 1.000000000000e+00 
5.480907745498e+01 1.000000000000e+00 
5.489192863764e+01 1.000000000000e+00 
5.497395130722e+01 1.000000000000e+00 
5.505515375367e+01 1.000000000000e+00 
5.513554417759e+01 1.000000000000e+00 
5.521513069649e+01 1.000000000000e+00 
5.529392135081e+01 1.000000000000e+00 
5.537192409658e+01 1.000000000000e+00 
5.544914681159e+01 1.000000000000e+00 
5.552559730137e+01 1.000000000000e+00 
5.560128328727e+01 1.000000000000e+00 
5.567621241264e+01 1.000000000000e+00 
5.575039224878e+01 1.000000000000e+00 
5.582383028748e+01 1.000000000000e+00 
5.589653394258e+01 1.000000000000e+00 
5.596851056048e+01 1.000000000000e+00 
5.603976741252e+01 1.000000000000e+00 
5.611031169656e+01 1.000000000000e+00 
5.618015053832e+01 1.000000000000e+00 
5.624929098850e+01 1.000000000000e+00 
5.631774003304e+01 1.000000000000e+00 
5.638550459011e+01 1.000000000000e+00 
5.645259150240e+01 1.000000000000e+00 
5.651900754321e+01 1.000000000000e+00 
5.658475942665e+01 1.000000000000e+00 
5.664985379100e+01 1.000000000000e+00 
5.671429720923e+01 1.000000000000e+00 
5.677809619459e+01 1.000000000000e+00 
5.684125718858e+01 1.000000000000e+00 
5.690378657124e+01 1.000000000000e+00 
5.696569066236e+01 1.000000000000e+00 
5.702697571377e+01 1.000000000000e+00 
5.708764791523e+01 1.000000000000e+00 
5.714771339552e+01 1.000000000000e+00 
5.720717821929e+01 1.000000000000e+00 
5.726604839278e+01 1.000000000000e+00 
5.732432986497e+01 1.000000000000e+00 
5.738202852430e+01 1.000000000000e+00 
5.743915019538e+01 1.000000000000e+00 
5.749570064921e+01 1.000000000000e+00 
5.755168559972e+01 1.000000000000e+00 
5.760711070058e+01 1.000000000000e+00 
5.766198155070e+01 1.000000000000e+00 
5.771630369100e+01 1.000000000000e+00 
5.777008260993e+01 1.000000000000e+00 
5.782332374010e+01 1.000000000000e+00 
5.787603245940e+01 1.000000000000e+00 
5.792821409206e+01 1.000000000000e+00 
5.797987390975e+01 1.000000000000e+00 
5.803101712813e+01 1.000000000000e+00 
5.808164891248e+01 1.000000000000e+00 
5.813177437854e+01 1.000000000000e+00 
5.818139858949e+01 1.000000000000e+00 
5.823052656071e+01 1.000000000000e+00 
5.827916325255e+01 1.000000000000e+00 
5.832731357546e+01 1.000000000000e+00 
5.837498239560e+01 1.000000000000e+00 
5.842217453118e+01 1.000000000000e+00 
5.846889474458e+01 1.000000000000e+00 
5.851514775231e+01 1.000000000000e+00 
5.856093823042e+01 1.000000000000e+00 
5.860627080637e+01 1.000000000000e+00 
5.865115005556e+01 1.000000000000e+00 
5.869558051131e+01 1.000000000000e+00 
5.873956666562e+01 1.000000000000e+00 
5.878311295665e+01 1.000000000000e+00 
5.882622378324e+01 1.000000000000e+00 
5.886890350107e+01 1.000000000000e+00 
5.891115642376e+01 1.000000000000e+00 
5.895298681899e+01 1.000000000000e+00 
5.899439890965e+01 1.000000000000e+00 
5.903539687898e+01 1.000000000000e+00 
5.907598486707e+01 1.000000000000e+00 
5.911616697606e+01 1.000000000000e+00 
5.915594726203e+01 1.000000000000e+00 
5.919532974488e+01 1.000000000000e+00 
5.923431840449e+01 1.000000000000e+00 
5.927291717716e+01 1.000000000000e+00 
5.931112996087e+01 1.000000000000e+00 
5.934896061606e+01 1.000000000000e+00 
5.938641296640e+01 1.000000000000e+00 
5.942349079505e+01 1.000000000000e+00 
5.946019784545e+01 1.000000000000e+00 
5.949653782661e+01 1.000000000000e+00 
5.953251440928e+01 1.000000000000e+00 
5.956813122229e+01 1.000000000000e+00 
5.960339186677e+01 1.000000000000e+00 
5.963829990772e+01 1.000000000000e+00 
5.967285886591e+01 1.000000000000e+00 
5.970707223208e+01 1.000000000000e+00 
5.974094346756e+01 1.000000000000e+00 
5.977447599142e+01 1.000000000000e+00 
5.980767319038e+01 1.000000000000e+00 
5.984053841926e+01 1.000000000000e+00 
5.987307499282e+01 1.000000000000e+00 
5.990528619992e+01 1.000000000000e+00 
5.993717529504e+01 1.000000000000e+00 
5.996874549910e+01 1.000000000000e+00 
6.000000000000e+01 1.000000000000e+00 
 TITLE = "Profiles along polylines"
 VARIABLES = "DIST" "SATURATION1" 
 ZONE T="TIME=1.797693134862e+308"
0.000000000000e+00 1.000000000000e+00 
6.309419576500e-01 1.000000000000e+00 
1.255574498818e+00 1.000000000000e+00 
1.873960714808e+00 1.000000000000e+00 
2.486163068583e+00 1.000000000000e+00 
3.092243398292e+00 1.000000000000e+00 
3.692262925377e+00 1.000000000000e+00 
4.286282257819e+00 1.000000000000e+00 
4.874361393554e+00 1.000000000000e+00 
5.456559737009e+00 1.000000000000e+00 
6.032936097574e+00 1.000000000000e+00 
6.603548697060e+00 1.000000000000e+00 
7.168455172392e+00 1.000000000000e+00 
7.727712582899e+00 1.000000000000e+00 
8.281377417235e+00 1.000000000000e+00 
8.829505600410e+00 1.000000000000e+00 
9.372152504958e+00 1.000000000000e+00 
9.909372939576e+00 1.000000000000e+00 
1.044122116975e+01 1.000000000000e+00 
1.096775091871e+01 1.000000000000e+00 
1.148901537033e+01 1.000000000000e+00 
1.200506717923e+01 1.000000000000e+00 
1.251595846821e+01 1.000000000000e+00 
1.302174084321e+01 1.000000000000e+00 
1.352246539472e+01 1.000000000000e+00 
1.401818269913e+01 1.000000000000e+00 
1.450894282899e+01 1.000000000000e+00 
1.499479535855e+01 1.000000000000e+00 
1.547578936484e+01 1.000000000000e+00 
1.595197343307e+01 1.000000000000e+00 
1.642339566196e+01 1.000000000000e+00 
1.689010366901e+01 1.000000000000e+00 
1.735214459558e+01 1.000000000000e+00 
1.780956511195e+01 1.000000000000e+00 
1.826241142222e+01 1.000000000000e+00 
1.871072926918e+01 1.000000000000e+00 
1.915456393904e+01 1.000000000000e+00 
1.959396026157e+01 1.000000000000e+00 
2.002896261924e+01 1.000000000000e+00 
2.045961495161e+01 1.000000000000e+00 
2.088596075978e+01 1.000000000000e+00 
2.130804311059e+01 9.232253175080e-01 
2.172590463641e+01 8.399293525881e-01 
2.213958754826e+01 7.758426165761e-01 
2.254913363059e+01 7.261508248269e-01 
2.295458425069e+01 6.866357495321e-01 
2.335598036530e+01 6.544086688464e-01 
2.375336252157e+01 6.275436249852e-01 
2.414677085528e+01 6.047337798068e-01 
2.453624510432e+01 5.850680430918e-01 
2.492182461094e+01 5.678935088913e-01 
2.530354832193e+01 5.527302581865e-01 
2.568145479587e+01 5.392174236787e-01 
2.605558220657e+01 5.270781477802e-01 
2.642596834625e+01 5.160962190371e-01 
2.679265062422e+01 5.061001114308e-01 
2.715566607898e+01 4.969518339561e-01 
2.751505137660e+01 4.885389811140e-01 
2.787084281845e+01 4.807689592938e-01 
2.822307634796e+01 4.735647227738e-01 
2.857178754480e+01 4.668615764903e-01 
2.891701162749e+01 4.606047448414e-01 
2.925878346974e+01 4.547474993169e-01 
2.959713759330e+01 4.492497002364e-01 
2.993210817615e+01 4.440766482827e-01 
3.026372905334e+01 4.391981714022e-01 
3.059203372075e+01 4.345878920874e-01 
3.091705534092e+01 4.302226344600e-01 
3.123882674631e+01 4.260819407787e-01 
3.155738043971e+01 4.221476743165e-01 
3.187274859355e+01 4.184036909411e-01 
3.218496306457e+01 4.148355656102e-01 
3.249405539135e+01 4.114303635825e-01 
3.280005679622e+01 4.081764477551e-01 
3.310299818707e+01 4.050633156163e-01 
3.340291016366e+01 4.020814605338e-01 
3.369982301923e+01 3.992222532818e-01 
3.399376674668e+01 3.964778403263e-01 
3.428477104003e+01 3.938410562151e-01 
3.457286529154e+01 3.913053478182e-01 
3.485807859763e+01 3.888647084627e-01 
3.514043976929e+01 3.865136204961e-01 
3.541997732867e+01 3.842470051758e-01 
3.569671951104e+01 3.820601786646e-01 
3.597069427381e+01 3.799488132568e-01 
3.624192928974e+01 3.779089032773e-01 
3.651045195665e+01 3.759367347814e-01 
3.677628939838e+01 3.740288587308e-01 
3.703946846595e+01 3.721820671279e-01 
3.730001574285e+01 3.703933717041e-01 
3.755795754602e+01 3.686599848970e-01 
3.781331993109e+01 3.669793027792e-01 
3.806612869319e+01 3.653488897591e-01 
3.831640936763e+01 3.637664648150e-01 
3.856418723513e+01 3.622298890561e-01 
3.880948732236e+01 3.607371545147e-01 
3.905233440706e+01 3.592863739753e-01 
3.929275302298e+01 3.578757717551e-01 
3.953076745137e+01 3.565036754072e-01 
3.976640173497e+01 3.551685080456e-01 
3.999967967818e+01 3.538687814289e-01 
4.023062484306e+01 3.526030896711e-01 
4.045926055401e+01 3.513701034457e-01 
4.068560990707e+01 3.501685646567e-01 
4.090969576990e+01 3.489972816027e-01 
4.113154077307e+01 3.478551245813e-01 
4.135116732364e+01 3.467410217372e-01 
4.156859760962e+01 3.456539552872e-01 
4.178385359541e+01 3.445929580841e-01 
4.199695702184e+01 3.435571104265e-01 
4.220792941056e+01 3.425455370896e-01 
4.241679207291e+01 3.415574045594e-01 
4.262356610959e+01 3.405919185144e-01 
4.282827240605e+01 3.396483215124e-01 
4.303093164118e+01 3.387258907829e-01 
4.323156428694e+01 3.378239362182e-01 
4.343019060359e+01 3.369417985255e-01 
4.362683065246e+01 3.360788474304e-01 
4.382150430172e+01 3.352344800338e-01 
4.401423121769e+01 3.344081193428e-01 
4.420503086325e+01 3.335992128683e-01 
4.439392251066e+01 3.328072312568e-01 
4.458092524236e+01 3.320316670603e-01 
4.476605794925e+01 3.312720335959e-01 
4.494933932822e+01 3.305278638812e-01 
4.513078789101e+01 3.297987095921e-01 
4.531042196729e+01 3.290841401072e-01 
4.548825970605e+01 3.283837416188e-01 
4.566431907053e+01 3.276971163225e-01 
4.583861784166e+01 3.270238816231e-01 
4.601117362396e+01 3.263636693785e-01 
4.618200384511e+01 3.257161252115e-01 
4.635112576390e+01 3.250809078313e-01 
4.651855646466e+01 3.244576884435e-01 
4.668431285618e+01 3.238461501772e-01 
4.684841168495e+01 3.232459874926e-01 
4.701086952767e+01 3.226569056968e-01 
4.717170279204e+01 3.220786204560e-01 
4.733092772362e+01 3.215108573132e-01 
4.748856040481e+01 3.209533512603e-01 
4.764461675807e+01 3.204058463172e-01 
4.779911254916e+01 3.198680951342e-01 
4.795206338129e+01 3.193398586462e-01 
4.810348470289e+01 3.188209056979e-01 
4.825339181508e+01 3.183110126907e-01 
4.840179985678e+01 3.178099633209e-01 
4.854872381696e+01 3.173175482425e-01 
4.869417853743e+01 3.168335647769e-01 
4.883817871152e+01 3.163578166512e-01 
4.898073888208e+01 3.158901137511e-01 
4.912187345071e+01 3.154302718503e-01 
4.926159667724e+01 3.149781123829e-01 
4.939992267246e+01 3.145334622499e-01 
4.953686540363e+01 3.140961535933e-01 
4.967243870789e+01 3.136660235561e-01 
4.980665627868e+01 3.132429141380e-01 
4.993953167226e+01 3.128266719959e-01 
5.007107831114e+01 3.124171482616e-01 
5.020130948645e+01 3.120141983726e-01 
5.033023835142e+01 3.116176819368e-01 
5.045787792802e+01 3.112274625633e-01 
5.058424110760e+01 3.108434077196e-01 
5.070934065408e+01 3.104653885862e-01 
5.083318920624e+01 3.100932799210e-01 
5.095579927155e+01 3.097269599547e-01 
5.107718323753e+01 3.093663102384e-01 
5.119735336526e+01 3.090112155508e-01 
5.131632179198e+01 3.086615637818e-01 
5.143410053342e+01 3.083172458231e-01 
5.155070148633e+01 3.079781554612e-01 
5.166613643079e+01 3.076441892768e-01 
5.178041702334e+01 3.073152465737e-01 
5.189355480987e+01 3.069912292547e-01 
5.200556122037e+01 3.066720417537e-01 
5.211644756527e+01 3.063575909662e-01 
5.222622504532e+01 3.060477861445e-01 
5.233490474913e+01 3.057425388314e-01 
5.244249765745e+01 3.054417627778e-01 
5.254901463690e+01 3.051453738927e-01 
5.265446644619e+01 3.048532901604e-01 
5.275886374073e+01 3.045654315663e-01 
5.286221706172e+01 3.042817200664e-01 
5.296453684737e+01 3.040020794987e-01 
5.306583343487e+01 3.037264355234e-01 
5.316611705806e+01 3.034547155754e-01 
5.326539784491e+01 3.031868488202e-01 
5.336368582425e+01 3.029227660869e-01 
5.346099092754e+01 3.026623998155e-01 
5.355732297761e+01 3.024056840422e-01 
5.365269170411e+01 3.021525543138e-01 
5.374710674534e+01 3.019029476410e-01 
5.384057763677e+01 3.016568024883e-01 
5.393311381755e+01 3.014140587175e-01 
5.402472463681e+01 3.011746575334e-01 
5.411541934658e+01 3.009385414666e-01 
5.420520710821e+01 3.007056543210e-01 
5.429409699415e+01 3.004759411362e-01 
5.438209798078e+01 3.002493481732e-01 
5.446921895934e+01 3.000258228546e-01 
5.455546872853e+01 2.998053137543e-01 
5.464085599656e+01 2.995877705618e-01 
5.472538939167e+01 2.993731440284e-01 
5.480907745498e+01 2.991613859573e-01 
5.489192863764e+01 2.989524491856e-01 
5.497395130722e+01 2.987462875420e-01 
5.505515375367e+01 2.985428558078e-01 
5.513554417759e+01 2.983421097225e-01 
5.521513069649e+01 2.981440059458e-01 
5.529392135081e+01 2.979485020198e-01 
5.537192409658e+01 2.977555563668e-01 
5.544914681159e+01 2.975651282527e-01 
5.552559730137e+01 2.973771777530e-01 
5.560128328727e+01 2.971916657625e-01 
5.567621241264e+01 2.970085539619e-01 
5.575039224878e+01 2.968278047851e-01 
5.582383028748e+01 2.966493814201e-01 
5.589653394258e+01 2.964732477880e-01 
5.596851056048e+01 2.962993685018e-01 
5.603976741252e+01 2.961277088688e-01 
5.611031169656e+01 2.959582348716e-01 
5.618015053832e+01 2.957909131503e-01 
5.624929098850e+01 2.956257109948e-01 
5.631774003304e+01 2.954625963066e-01 
5.638550459011e+01 2.953015375929e-01 
5.645259150240e+01 2.951425039714e-01 
5.651900754321e+01 2.949854651440e-01 
5.658475942665e+01 2.948303913596e-01 
5.664985379100e+01 2.946772534427e-01 
5.671429720923e+01 2.945260227561e-01 
5.677809619459e+01 2.943766711773e-01 
5.684125718858e+01 2.942291711162e-01 
5.690378657124e+01 2.940834954799e-01 
5.696569066236e+01 2.939396176604e-01 
5.702697571377e+01 2.937975115428e-01 
5.708764791523e+01 2.936571514818e-01 
5.714771339552e+01 2.935185122899e-01 
5.720717821929e+01 2.933815692363e-01 
5.726604839278e+01 2.932462980245e-01 
5.732432986497e+01 2.931126747816e-01 
5.738202852430e+01 2.929806760575e-01 
5.743915019538e+01 2.928502788248e-01 
5.749570064921e+01 2.927214604473e-01 
5.755168559972e+01 2.925941986810e-01 
5.760711070058e+01 2.924684716738e-01 
5.766198155070e+01 2.923442579459e-01 
5.771630369100e+01 2.922215363907e-01 
5.777008260993e+01 2.921002862552e-01 
5.782332374010e+01 2.919804871417e-01 
5.787603245940e+01 2.918621189984e-01 
5.792821409206e+01 2.917451621118e-01 
5.797987390975e+01 2.916295970976e-01 
5.803101712813e+01 2.915154049028e-01 
5.808164891248e+01 2.914025667881e-01 
5.813177437854e+01 2.912910643200e-01 
5.818139858949e+01 2.911808793725e-01 
5.823052656071e+01 2.910719941115e-01 
5.827916325255e+01 2.909643910060e-01 
5.832731357546e+01 2.908580528114e-01 
5.837498239560e+01 2.907529625529e-01 
5.842217453118e+01 2.906491035289e-01 
5.846889474458e+01 2.905464593238e-01 
5.851514775231e+01 2.904450137820e-01 
5.856093823042e+01 2.903447509914e-01 
5.860627080637e+01 2.902456552977e-01 
5.865115005556e+01 2.901477113077e-01 
5.869558051131e+01 2.900509038637e-01 
5.873956666562e+01 2.899552180380e-01 
5.878311295665e+01 2.898606391567e-01 
5.882622378324e+01 2.897671527645e-01 
5.886890350107e+01 2.896747446295e-01 
5.891115642376e+01 2.895834007373e-01 
5.895298681899e+01 2.894931072968e-01 
5.899439890965e+01 2.894038507335e-01 
5.903539687898e+01 2.893156176764e-01 
5.907598486707e+01 2.892283949615e-01 
5.911616697606e+01 2.891421696184e-01 
5.915594726203e+01 2.890569288845e-01 
5.919532974488e+01 2.889726601812e-01 
5.923431840449e+01 2.888893511193e-01 
5.927291717716e+01 2.888069895039e-01 
5.931112996087e+01 2.887255633208e-01 
5.934896061606e+01 2.886450607323e-01 
5.938641296640e+01 2.885654700728e-01 
5.942349079505e+01 2.884867798549e-01 
5.946019784545e+01 2.884089787649e-01 
5.949653782661e+01 2.883320556495e-01 
5.953251440928e+01 2.882559995220e-01 
5.956813122229e+01 2.881807995674e-01 
5.960339186677e+01 2.881064451106e-01 
5.963829990772e+01 2.880329256319e-01 
5.967285886591e+01 2.879602307825e-01 
5.970707223208e+01 2.878883503522e-01 
5.974094346756e+01 2.878172742667e-01 
5.977447599142e+01 2.877469926122e-01 
5.980767319038e+01 2.876774956132e-01 
5.984053841926e+01 2.876087736299e-01 
5.987307499282e+01 2.875408171731e-01 
5.990528619992e+01 2.874736168734e-01 
5.993717529504e+01 2.874071634971e-01 
5.996874549910e+01 2.873414479427e-01 
6.000000000000e+01 2.872764612013e-01 
