 TITLE = "Profiles along polylines"
 VARIABLES = "DIST" "SATURATION1" 
 ZONE T="TIME=0.000000000000e+00"
0.000000000000e+00 1.000000000000e+00 
6.309419576500e-01 1.000000000000e+00 
1.255574498818e+00 1.000000000000e+00 
1.873960714808e+00 1.000000000000e+00 
2.486163068583e+00 1.000000000000e+00 
3.092243398292e+00 1.000000000000e+00 
3.692262925377e+00 1.000000000000e+00 
4.286282257819e+00 1.000000000000e+00 
4.874361393554e+00 1.000000000000e+00 
5.456559737009e+00 1.000000000000e+00 
6.032936097574e+00 1.000000000000e+00 
6.603548697060e+00 1.000000000000e+00 
7.168455172392e+00 1.000000000000e+00 
7.727712582899e+00 1.000000000000e+00 
8.281377417235e+00 1.000000000000e+00 
8.829505600410e+00 1.000000000000e+00 
9.372152504958e+00 1.000000000000e+00 
9.909372939576e+00 1.000000000000e+00 
1.044122116975e+01 1.000000000000e+00 
1.096775091871e+01 1.000000000000e+00 
1.148901537033e+01 1.000000000000e+00 
1.200506717923e+01 1.000000000000e+00 
1.251595846821e+01 1.000000000000e+00 
1.302174084321e+01 1.000000000000e+00 
1.352246539472e+01 1.000000000000e+00 
1.401818269913e+01 1.000000000000e+00 
1.450894282899e+01 1.000000000000e+00 
1.499479535855e+01 1.000000000000e+00 
1.547578936484e+01 1.000000000000e+00 
1.595197343307e+01 1.000000000000e+00 
1.642339566196e+01 1.000000000000e+00 
1.689010366901e+01 1.000000000000e+00 
1.735214459558e+01 1.000000000000e+00 
1.780956511195e+01 1.000000000000e+00 
1.826241142222e+01 1.000000000000e+00 
1.871072926918e+01 1.000000000000e+00 
1.915456393904e+01 1.000000000000e+00 
1.959396026157e+01 1.000000000000e+00 
2.002896261924e+01 1.000000000000e+00 
2.045961495161e+01 1.000000000000e+00 
2.088596075978e+01 1.000000000000e+00 
2.130804311059e+01 1.000000000000e+00 
2.172590463641e+01 1.000000000000e+00 
2.213958754826e+01 1.000000000000e+00 
2.254913363059e+01 1.000000000000e+00 
2.295458425069e+01 1.000000000000e+00 
2.335598036530e+01 1.000000000000e+00 
2.375336252157e+01 1.000000000000e+00 
2.414677085528e+01 1.000000000000e+00 
2.453624510432e+01 1.000000000000e+00 
2.492182461094e+01 1.000000000000e+00 
2.530354832193e+01 1.000000000000e+00 
2.568145479587e+01 1.000000000000e+00 
2.605558220657e+01 1.000000000000e+00 
2.642596834625e+01 1.000000000000e+00 
2.679265062422e+01 1.000000000000e+00 
2.715566607898e+01 1.000000000000e+00 
2.751505137660e+01 1.000000000000e+00 
2.787084281845e+01 1.000000000000e+00 
2.822307634796e+01 1.000000000000e+00 
2.857178754480e+01 1.000000000000e+00 
2.891701162749e+01 1.000000000000e+00 
2.925878346974e+01 1.000000000000e+00 
2.959713759330e+01 1.000000000000e+00 
2.993210817615e+01 1.000000000000e+00 
3.026372905334e+01 1.000000000000e+00 
3.059203372075e+01 1.000000000000e+00 
3.091705534092e+01 1.000000000000e+00 
3.123882674631e+01 1.000000000000e+00 
3.155738043971e+01 1.000000000000e+00 
3.187274859355e+01 1.000000000000e+00 
3.218496306457e+01 1.000000000000e+00 
3.249405539135e+01 1.000000000000e+00 
3.280005679622e+01 1.000000000000e+00 
3.310299818707e+01 1.000000000000e+00 
3.340291016366e+01 1.000000000000e+00 
3.369982301923e+01 1.000000000000e+00 
3.399376674668e+01 1.000000000000e+00 
3.428477104003e+01 1.000000000000e+00 
3.457286529154e+01 1.000000000000e+00 
3.485807859763e+01 1.000000000000e+00 
3.514043976929e+01 1.000000000000e+00 
3.541997732867e+01 1.000000000000e+00 
3.569671951104e+01 1.000000000000e+00 
3.597069427381e+01 1.000000000000e+00 
3.624192928974e+01 1.000000000000e+00 
3.651045195665e+01 1.000000000000e+00 
3.677628939838e+01 1.000000000000e+00 
3.703946846595e+01 1.000000000000e+00 
3.730001574285e+01 1.000000000000e+00 
3.755795754602e+01 1.000000000000e+00 
3.781331993109e+01 1.000000000000e+00 
3.806612869319e+01 1.000000000000e+00 
3.831640936763e+01 1.000000000000e+00 
3.856418723513e+01 1.000000000000e+00 
3.880948732236e+01 1.000000000000e+00 
3.905233440706e+01 1.000000000000e+00 
3.929275302298e+01 1.000000000000e+00 
3.953076745137e+01 1.000000000000e+00 
3.976640173497e+01 1.000000000000e+00 
3.999967967818e+01 1.000000000000e+00 
4.023062484306e+01 1.000000000000e+00 
4.045926055401e+01 1.000000000000e+00 
4.068560990707e+01 1.000000000000e+00 
4.090969576990e+01 1.000000000000e+00 
4.113154077307e+01 1.000000000000e+00 
4.135116732364e+01 1.000000000000e+00 
4.156859760962e+01 1.000000000000e+00 
4.178385359541e+01 1.000000000000e+00 
4.199695702184e+01 1.000000000000e+00 
4.220792941056e+01 1.000000000000e+00 
4.241679207291e+01 1.000000000000e+00 
4.262356610959e+01 1.000000000000e+00 
4.282827240605e+01 1.000000000000e+00 
4.303093164118e+01 1.000000000000e+00 
4.323156428694e+01 1.000000000000e+00 
4.343019060359e+01 1.000000000000e+00 
4.362683065246e+01 1.000000000000e+00 
4.382150430172e+01 1.000000000000e+00 
4.401423121769e+01 1.000000000000e+00 
4.420503086325e+01 1.000000000000e+00 
4.439392251066e+01 1.000000000000e+00 
4.458092524236e+01 1.000000000000e+00 
4.476605794925e+01 1.000000000000e+00 
4.494933932822e+01 1.000000000000e+00 
4.513078789101e+01 1.000000000000e+00 
4.531042196729e+01 1.000000000000e+00 
4.548825970605e+01 1.000000000000e+00 
4.566431907053e+01 1.000000000000e+00 
4.583861784166e+01 1.000000000000e+00 
4.601117362396e+01 1.000000000000e+00 
4.618200384511e+01 1.000000000000e+00 
4.635112576390e+01 1.000000000000e+00 
4.651855646466e+01 1.000000000000e+00 
4.668431285618e+01 1.000000000000e+00 
4.684841168495e+01 1.000000000000e+00 
4.701086952767e+01 1.000000000000e+00 
4.717170279204e+01 1.000000000000e+00 
4.733092772362e+01 1.000000000000e+00 
4.748856040481e+01 1.000000000000e+00 
4.764461675807e+01 1.000000000000e+00 
4.779911254916e+01 1.000000000000e+00 
4.795206338129e+01 1.000000000000e+00 
4.810348470289e+01 1.000000000000e+00 
4.825339181508e+01 1.000000000000e+00 
4.840179985678e+01 1.000000000000e+00 
4.854872381696e+01 1.000000000000e+00 
4.869417853743e+01 1.000000000000e+00 
4.883817871152e+01 1.000000000000e+00 
4.898073888208e+01 1.000000000000e+00 
4.912187345071e+01 1.000000000000e+00 
4.926159667724e+01 1.000000000000e+00 
4.939992267246e+01 1.000000000000e+00 
4.953686540363e+01 1.000000000000e+00 
4.967243870789e+01 1.000000000000e+00 
4.980665627868e+01 1.000000000000e+00 
4.993953167226e+01 1.000000000000e+00 
5.007107831114e+01 1.000000000000e+00 
5.020130948645e+01 1.000000000000e+00 
5.033023835142e+01 1.000000000000e+00 
5.045787792802e+01 1.000000000000e+00 
5.058424110760e+01 1.000000000000e+00 
5.070934065408e+01 1.000000000000e+00 
5.083318920624e+01 1.000000000000e+00 
5.095579927155e+01 1.000000000000e+00 
5.107718323753e+01 1.000000000000e+00 
5.119735336526e+01 1.000000000000e+00 
5.131632179198e+01 1.000000000000e+00 
5.143410053342e+01 1.000000000000e+00 
5.155070148633e+01 1.000000000000e+00 
5.166613643079e+01 1.000000000000e+00 
5.178041702334e+01 1.000000000000e+00 
5.189355480987e+01 1.000000000000e+00 
5.200556122037e+01 1.000000000000e+00 
5.211644756527e+01 1.000000000000e+00 
5.222622504532e+01 1.000000000000e+00 
5.233490474913e+01 1.000000000000e+00 
5.244249765745e+01 1.000000000000e+00 
5.254901463690e+01 1.000000000000e+00 
5.265446644619e+01 1.000000000000e+00 
5.275886374073e+01 1.000000000000e+00 
5.286221706172e+01 1.000000000000e+00 
5.296453684737e+01 1.000000000000e+00 
5.306583343487e+01 1.000000000000e+00 
5.316611705806e+01 1.000000000000e+00 
5.326539784491e+01 1.000000000000e+00 
5.336368582425e+01 1.000000000000e+00 
5.346099092754e+01 1.000000000000e+00 
5.355732297761e+01 1.000000000000e+00 
5.365269170411e+01 1.000000000000e+00 
5.374710674534e+01 1.000000000000e+00 
5.384057763677e+01 1.000000000000e+00 
5.393311381755e+01 1.000000000000e+00 
5.402472463681e+01 1.000000000000e+00 
5.411541934658e+01 1.000000000000e+00 
5.420520710821e+01 1.000000000000e+00 
5.429409699415e+01 1.000000000000e+00 
5.438209798078e+01 1.000000000000e+00 
5.446921895934e+01 1.000000000000e+00 
5.455546872853e+01 1.000000000000e+00 
5.464085599656e+01 1.000000000000e+00 
5.472538939167e+01 1.000000000000e+00 
5.480907745498e+01 1.000000000000e+00 
5.489192863764e+01 1.000000000000e+00 
5.497395130722e+01 1.000000000000e+00 
5.505515375367e+01 1.000000000000e+00 
5.513554417759e+01 1.000000000000e+00 
5.521513069649e+01 1.000000000000e+00 
5.529392135081e+01 1.000000000000e+00 
5.537192409658e+01 1.000000000000e+00 
5.544914681159e+01 1.000000000000e+00 
5.552559730137e+01 1.000000000000e+00 
5.560128328727e+01 1.000000000000e+00 
5.567621241264e+01 1.000000000000e+00 
5.575039224878e+01 1.000000000000e+00 
5.582383028748e+01 1.000000000000e+00 
5.589653394258e+01 1.000000000000e+00 
5.596851056048e+01 1.000000000000e+00 
5.603976741252e+01 1.000000000000e+00 
5.611031169656e+01 1.000000000000e+00 
5.618015053832e+01 1.000000000000e+00 
5.624929098850e+01 1.000000000000e+00 
5.631774003304e+01 1.000000000000e+00 
5.638550459011e+01 1.000000000000e+00 
5.645259150240e+01 1.000000000000e+00 
5.651900754321e+01 1.000000000000e+00 
5.658475942665e+01 1.000000000000e+00 
5.664985379100e+01 1.000000000000e+00 
5.671429720923e+01 1.000000000000e+00 
5.677809619459e+01 1.000000000000e+00 
5.684125718858e+01 1.000000000000e+00 
5.690378657124e+01 1.000000000000e+00 
5.696569066236e+01 1.000000000000e+00 
5.702697571377e+01 1.000000000000e+00 
5.708764791523e+01 1.000000000000e+00 
5.714771339552e+01 1.000000000000e+00 
5.720717821929e+01 1.000000000000e+00 
5.726604839278e+01 1.000000000000e+00 
5.732432986497e+01 1.000000000000e+00 
5.738202852430e+01 1.000000000000e+00 
5.743915019538e+01 1.000000000000e+00 
5.749570064921e+01 1.000000000000e+00 
5.755168559972e+01 1.000000000000e+00 
5.760711070058e+01 1.000000000000e+00 
5.766198155070e+01 1.000000000000e+00 
5.771630369100e+01 1.000000000000e+00 
5.777008260993e+01 1.000000000000e+00 
5.782332374010e+01 1.000000000000e+00 
5.787603245940e+01 1.000000000000e+00 
5.792821409206e+01 1.000000000000e+00 
5.797987390975e+01 1.000000000000e+00 
5.803101712813e+01 1.000000000000e+00 
5.808164891248e+01 1.000000000000e+00 
5.813177437854e+01 1.000000000000e+00 
5.818139858949e+01 1.000000000000e+00 
5.823052656071e+01 1.000000000000e+00 
5.827916325255e+01 1.000000000000e+00 
5.832731357546e+01 1.000000000000e+00 
5.837498239560e+01 1.000000000000e+00 
5.842217453118e+01 1.000000000000e+00 
5.846889474458e+01 1.000000000000e+00 
5.851514775231e+01 1.000000000000e+00 
5.856093823042e+01 1.000000000000e+00 
5.860627080637e+01 1.000000000000e+00 
5.865115005556e+01 1.000000000000e+00 
5.869558051131e+01 1.000000000000e+00 
5.873956666562e+01 1.000000000000e+00 
5.878311295665e+01 1.000000000000e+00 
5.882622378324e+01 1.000000000000e+00 
5.886890350107e+01 1.000000000000e+00 
5.891115642376e+01 1.000000000000e+00 
5.895298681899e+01 1.000000000000e+00 
5.899439890965e+01 1.000000000000e+00 
5.903539687898e+01 1.000000000000e+00 
5.907598486707e+01 1.000000000000e+00 
5.911616697606e+01 1.000000000000e+00 
5.915594726203e+01 1.000000000000e+00 
5.919532974488e+01 1.000000000000e+00 
5.923431840449e+01 1.000000000000e+00 
5.927291717716e+01 1.000000000000e+00 
5.931112996087e+01 1.000000000000e+00 
5.934896061606e+01 1.000000000000e+00 
5.938641296640e+01 1.000000000000e+00 
5.942349079505e+01 1.000000000000e+00 
5.946019784545e+01 1.000000000000e+00 
5.949653782661e+01 1.000000000000e+00 
5.953251440928e+01 1.000000000000e+00 
5.956813122229e+01 1.000000000000e+00 
5.960339186677e+01 1.000000000000e+00 
5.963829990772e+01 1.000000000000e+00 
5.967285886591e+01 1.000000000000e+00 
5.970707223208e+01 1.000000000000e+00 
5.974094346756e+01 1.000000000000e+00 
5.977447599142e+01 1.000000000000e+00 
5.980767319038e+01 1.000000000000e+00 
5.984053841926e+01 1.000000000000e+00 
5.987307499282e+01 1.000000000000e+00 
5.990528619992e+01 1.000000000000e+00 
5.993717529504e+01 1.000000000000e+00 
5.996874549910e+01 1.000000000000e+00 
6.000000000000e+01 1.000000000000e+00 
 TITLE = "Profiles along polylines"
 VARIABLES = "DIST" "SATURATION1" 
 ZONE T="TIME=1.797693134862e+308"
0.000000000000e+00 1.000000000000e+00 
6.309419576500e-01 1.000000000000e+00 
1.255574498818e+00 1.000000000000e+00 
1.873960714808e+00 1.000000000000e+00 
2.486163068583e+00 1.000000000000e+00 
3.092243398292e+00 1.000000000000e+00 
3.692262925377e+00 1.000000000000e+00 
4.286282257819e+00 1.000000000000e+00 
4.874361393554e+00 1.000000000000e+00 
5.456559737009e+00 1.000000000000e+00 
6.032936097574e+00 1.000000000000e+00 
6.603548697060e+00 1.000000000000e+00 
7.168455172392e+00 1.000000000000e+00 
7.727712582899e+00 1.000000000000e+00 
8.281377417235e+00 1.000000000000e+00 
8.829505600410e+00 1.000000000000e+00 
9.372152504958e+00 1.000000000000e+00 
9.909372939576e+00 1.000000000000e+00 
1.044122116975e+01 1.000000000000e+00 
1.096775091871e+01 1.000000000000e+00 
1.148901537033e+01 1.000000000000e+00 
1.200506717923e+01 1.000000000000e+00 
1.251595846821e+01 1.000000000000e+00 
1.302174084321e+01 1.000000000000e+00 
1.352246539472e+01 1.000000000000e+00 
1.401818269913e+01 1.000000000000e+00 
1.450894282899e+01 1.000000000000e+00 
1.499479535855e+01 1.000000000000e+00 
1.547578936484e+01 1.000000000000e+00 
1.595197343307e+01 1.000000000000e+00 
1.642339566196e+01 1.000000000000e+00 
1.689010366901e+01 1.000000000000e+00 
1.735214459558e+01 1.000000000000e+00 
1.780956511195e+01 1.000000000000e+00 
1.826241142222e+01 1.000000000000e+00 
1.871072926918e+01 1.000000000000e+00 
1.915456393904e+01 1.000000000000e+00 
1.959396026157e+01 1.000000000000e+00 
2.002896261924e+01 1.000000000000e+00 
2.045961495161e+01 1.000000000000e+00 
2.088596075978e+01 1.000000000000e+00 
2.130804311059e+01 1.000000000000e+00 
2.172590463641e+01 1.000000000000e+00 
2.213958754826e+01 1.000000000000e+00 
2.254913363059e+01 9.382365128496e-01 
2.295458425069e+01 8.540274446245e-01 
2.335598036530e+01 7.885380955022e-01 
2.375336252157e+01 7.375728253949e-01 
2.414677085528e+01 6.970198971694e-01 
2.453624510432e+01 6.639583588004e-01 
2.492182461094e+01 6.364163583262e-01 
2.530354832193e+01 6.130492959926e-01 
2.568145479587e+01 5.929179293033e-01 
2.605558220657e+01 5.753487754804e-01 
2.642596834625e+01 5.598468163684e-01 
2.679265062422e+01 5.460399704263e-01 
2.715566607898e+01 5.336429274821e-01 
2.751505137660e+01 5.224330083147e-01 
2.787084281845e+01 5.122336650716e-01 
2.822307634796e+01 5.029029540749e-01 
2.857178754480e+01 4.943253191655e-01 
2.891701162749e+01 4.864056260323e-01 
2.925878346974e+01 4.790647578876e-01 
2.959713759330e+01 4.722363147892e-01 
2.993210817615e+01 4.658641048656e-01 
3.026372905334e+01 4.599002135266e-01 
3.059203372075e+01 4.543034999846e-01 
3.091705534092e+01 4.490384139730e-01 
3.123882674631e+01 4.440740553347e-01 
3.155738043971e+01 4.393834198200e-01 
3.187274859355e+01 4.349427890888e-01 
3.218496306457e+01 4.307312332631e-01 
3.249405539135e+01 4.267302026974e-01 
3.280005679622e+01 4.229231904380e-01 
3.310299818707e+01 4.192954514068e-01 
3.340291016366e+01 4.158337673309e-01 
3.369982301923e+01 4.125262489639e-01 
3.399376674668e+01 4.093621687125e-01 
3.428477104003e+01 4.063318183876e-01 
3.457286529154e+01 4.034263877400e-01 
3.485807859763e+01 4.006378601653e-01 
3.514043976929e+01 3.979589228115e-01 
3.541997732867e+01 3.953828889569e-01 
3.569671951104e+01 3.929036305706e-01 
3.597069427381e+01 3.905155194946e-01 
3.624192928974e+01 3.882133761573e-01 
3.651045195665e+01 3.859924244563e-01 
3.677628939838e+01 3.838482521375e-01 
3.703946846595e+01 3.817767758355e-01 
3.730001574285e+01 3.797742101073e-01 
3.755795754602e+01 3.778370399941e-01 
3.781331993109e+01 3.759619965829e-01 
3.806612869319e+01 3.741460352486e-01 
3.831640936763e+01 3.723863162076e-01 
3.856418723513e+01 3.706801870666e-01 
3.880948732236e+01 3.690251671876e-01 
3.905233440706e+01 3.674189335917e-01 
3.929275302298e+01 3.658593082540e-01 
3.953076745137e+01 3.643442467134e-01 
3.976640173497e+01 3.628718276249e-01 
3.999967967818e+01 3.614402433744e-01 
4.023062484306e+01 3.600477915805e-01 
4.045926055401e+01 3.586928673132e-01 
4.068560990707e+01 3.573739559773e-01 
4.090969576990e+01 3.560896268727e-01 
4.113154077307e+01 3.548385273565e-01 
4.135116732364e+01 3.536193773778e-01 
4.156859760962e+01 3.524309645177e-01 
4.178385359541e+01 3.512721394855e-01 
4.199695702184e+01 3.501418119555e-01 
4.220792941056e+01 3.490389467126e-01 
4.241679207291e+01 3.479625600791e-01 
4.262356610959e+01 3.469117166638e-01 
4.282827240605e+01 3.458855263823e-01 
4.303093164118e+01 3.448831416350e-01 
4.323156428694e+01 3.439037547396e-01 
4.343019060359e+01 3.429465955730e-01 
4.362683065246e+01 3.420109293004e-01 
4.382150430172e+01 3.410960542995e-01 
4.401423121769e+01 3.402013002978e-01 
4.420503086325e+01 3.393260266072e-01 
4.439392251066e+01 3.384696204145e-01 
4.458092524236e+01 3.376314952416e-01 
4.476605794925e+01 3.368110895202e-01 
4.494933932822e+01 3.360078652637e-01 
4.513078789101e+01 3.352213067774e-01 
4.531042196729e+01 3.344509194766e-01 
4.548825970605e+01 3.336962287868e-01 
4.566431907053e+01 3.329567791412e-01 
4.583861784166e+01 3.322321330050e-01 
4.601117362396e+01 3.315218699491e-01 
4.618200384511e+01 3.308255858074e-01 
4.635112576390e+01 3.301428918504e-01 
4.651855646466e+01 3.294734140613e-01 
4.668431285618e+01 3.288167924383e-01 
4.684841168495e+01 3.281726802810e-01 
4.701086952767e+01 3.275407435977e-01 
4.717170279204e+01 3.269206605162e-01 
4.733092772362e+01 3.263121207034e-01 
4.748856040481e+01 3.257148248478e-01 
4.764461675807e+01 3.251284841543e-01 
4.779911254916e+01 3.245528198675e-01 
4.795206338129e+01 3.239875628531e-01 
4.810348470289e+01 3.234324531527e-01 
4.825339181508e+01 3.228872395636e-01 
4.840179985678e+01 3.223516793204e-01 
4.854872381696e+01 3.218255376968e-01 
4.869417853743e+01 3.213085876616e-01 
4.883817871152e+01 3.208006095663e-01 
4.898073888208e+01 3.203013908510e-01 
4.912187345071e+01 3.198107257266e-01 
4.926159667724e+01 3.193284149056e-01 
4.939992267246e+01 3.188542653697e-01 
4.953686540363e+01 3.183880901054e-01 
4.967243870789e+01 3.179297078254e-01 
4.980665627868e+01 3.174789427944e-01 
4.993953167226e+01 3.170356245951e-01 
5.007107831114e+01 3.165995879168e-01 
5.020130948645e+01 3.161706723564e-01 
5.033023835142e+01 3.157487222579e-01 
5.045787792802e+01 3.153335865167e-01 
5.058424110760e+01 3.149251184121e-01 
5.070934065408e+01 3.145231754391e-01 
5.083318920624e+01 3.141276191504e-01 
5.095579927155e+01 3.137383150327e-01 
5.107718323753e+01 3.133551323325e-01 
5.119735336526e+01 3.129779439463e-01 
5.131632179198e+01 3.126066262861e-01 
5.143410053342e+01 3.122410591529e-01 
5.155070148633e+01 3.118811256135e-01 
5.166613643079e+01 3.115267118846e-01 
5.178041702334e+01 3.111777072483e-01 
5.189355480987e+01 3.108340039123e-01 
5.200556122037e+01 3.104954969301e-01 
5.211644756527e+01 3.101620841194e-01 
5.222622504532e+01 3.098336659446e-01 
5.233490474913e+01 3.095101454388e-01 
5.244249765745e+01 3.091914281107e-01 
5.254901463690e+01 3.088774218854e-01 
5.265446644619e+01 3.085680370107e-01 
5.275886374073e+01 3.082631859726e-01 
5.286221706172e+01 3.079627834586e-01 
5.296453684737e+01 3.076667462580e-01 
5.306583343487e+01 3.073749931941e-01 
5.316611705806e+01 3.070874450695e-01 
5.326539784491e+01 3.068040246147e-01 
5.336368582425e+01 3.065246564134e-01 
5.346099092754e+01 3.062492668425e-01 
5.355732297761e+01 3.059777840528e-01 
5.365269170411e+01 3.057101378750e-01 
5.374710674534e+01 3.054462597667e-01 
5.384057763677e+01 3.051860827983e-01 
5.393311381755e+01 3.049295415904e-01 
5.402472463681e+01 3.046765722535e-01 
5.411541934658e+01 3.044271123661e-01 
5.420520710821e+01 3.041811009174e-01 
5.429409699415e+01 3.039384782646e-01 
5.438209798078e+01 3.036991861149e-01 
5.446921895934e+01 3.034631674609e-01 
5.455546872853e+01 3.032303665659e-01 
5.464085599656e+01 3.030007289255e-01 
5.472538939167e+01 3.027742012076e-01 
5.480907745498e+01 3.025507312405e-01 
5.489192863764e+01 3.023302679917e-01 
5.497395130722e+01 3.021127615214e-01 
5.505515375367e+01 3.018981629395e-01 
5.513554417759e+01 3.016864244103e-01 
5.521513069649e+01 3.014774991098e-01 
5.529392135081e+01 3.012713411850e-01 
5.537192409658e+01 3.010679057498e-01 
5.544914681159e+01 3.008671488450e-01 
5.552559730137e+01 3.006690274008e-01 
5.560128328727e+01 3.004734992463e-01 
5.567621241264e+01 3.002805230723e-01 
5.575039224878e+01 3.000900583958e-01 
5.582383028748e+01 2.999020655599e-01 
5.589653394258e+01 2.997165057107e-01 
5.596851056048e+01 2.995333407520e-01 
5.603976741252e+01 2.993525333478e-01 
5.611031169656e+01 2.991740469003e-01 
5.618015053832e+01 2.989978455310e-01 
5.624929098850e+01 2.988238940709e-01 
5.631774003304e+01 2.986521580200e-01 
5.638550459011e+01 2.984826035397e-01 
5.645259150240e+01 2.983151974576e-01 
5.651900754321e+01 2.981499072380e-01 
5.658475942665e+01 2.979867009432e-01 
5.664985379100e+01 2.978255472618e-01 
5.671429720923e+01 2.976664154694e-01 
5.677809619459e+01 2.975092754027e-01 
5.684125718858e+01 2.973540974775e-01 
5.690378657124e+01 2.972008526513e-01 
5.696569066236e+01 2.970495124093e-01 
5.702697571377e+01 2.969000487724e-01 
5.708764791523e+01 2.967524342726e-01 
5.714771339552e+01 2.966066419394e-01 
5.720717821929e+01 2.964626452980e-01 
5.726604839278e+01 2.963204183455e-01 
5.732432986497e+01 2.961799355393e-01 
5.738202852430e+01 2.960411717955e-01 
5.743915019538e+01 2.959041024882e-01 
5.749570064921e+01 2.957687034165e-01 
5.755168559972e+01 2.956349508043e-01 
5.760711070058e+01 2.955028213002e-01 
5.766198155070e+01 2.953722919563e-01 
5.771630369100e+01 2.952433402287e-01 
5.777008260993e+01 2.951159439565e-01 
5.782332374010e+01 2.949900813631e-01 
5.787603245940e+01 2.948657310468e-01 
5.792821409206e+01 2.947428719708e-01 
5.797987390975e+01 2.946214834550e-01 
5.803101712813e+01 2.945015451771e-01 
5.808164891248e+01 2.943830371535e-01 
5.813177437854e+01 2.942659397315e-01 
5.818139858949e+01 2.941502335903e-01 
5.823052656071e+01 2.940358997242e-01 
5.827916325255e+01 2.939229194543e-01 
5.832731357546e+01 2.938112744110e-01 
5.837498239560e+01 2.937009465157e-01 
5.842217453118e+01 2.935919179846e-01 
5.846889474458e+01 2.934841713416e-01 
5.851514775231e+01 2.933776893909e-01 
5.856093823042e+01 2.932724551996e-01 
5.860627080637e+01 2.931684521121e-01 
5.865115005556e+01 2.930656637538e-01 
5.869558051131e+01 2.929640740037e-01 
5.873956666562e+01 2.928636669887e-01 
5.878311295665e+01 2.927644271080e-01 
5.882622378324e+01 2.926663389963e-01 
5.886890350107e+01 2.925693875286e-01 
5.891115642376e+01 2.924735578139e-01 
5.895298681899e+01 2.923788352006e-01 
5.899439890965e+01 2.922852052704e-01 
5.903539687898e+01 2.921926538230e-01 
5.907598486707e+01 2.921011668808e-01 
5.911616697606e+01 2.920107306740e-01 
5.915594726203e+01 2.919213316558e-01 
5.919532974488e+01 2.918329564767e-01 
5.923431840449e+01 2.917455919908e-01 
5.927291717716e+01 2.916592252601e-01 
5.931112996087e+01 2.915738435407e-01 
5.934896061606e+01 2.914894342776e-01 
5.938641296640e+01 2.914059851007e-01 
5.942349079505e+01 2.913234838305e-01 
5.946019784545e+01 2.912419184737e-01 
5.949653782661e+01 2.911612772087e-01 
5.953251440928e+01 2.910815483924e-01 
5.956813122229e+01 2.910027205651e-01 
5.960339186677e+01 2.909247824174e-01 
5.963829990772e+01 2.908477228062e-01 
5.967285886591e+01 2.907715307708e-01 
5.970707223208e+01 2.906961954988e-01 
5.974094346756e+01 2.906217063235e-01 
5.977447599142e+01 2.905480527496e-01 
5.980767319038e+01 2.904752244296e-01 
5.984053841926e+01 2.904032111608e-01 
5.987307499282e+01 2.903320029017e-01 
5.990528619992e+01 2.902615897386e-01 
5.993717529504e+01 2.901919619029e-01 
5.996874549910e+01 2.901231097672e-01 
6.000000000000e+01 2.900550238019e-01 
