 TITLE = "Profiles along polylines"
 VARIABLES = "DIST" "SATURATION1" 
 ZONE T="TIME=0.000000000000e+00"
0.000000000000e+00 1.000000000000e+00 
0.000000000000e+00 1.000000000000e+00 
6.309419576500e-01 1.000000000000e+00 
6.309419576500e-01 1.000000000000e+00 
1.255574498818e+00 1.000000000000e+00 
1.255574498818e+00 1.000000000000e+00 
1.873960714808e+00 1.000000000000e+00 
1.873960714808e+00 1.000000000000e+00 
2.486163068583e+00 1.000000000000e+00 
2.486163068583e+00 1.000000000000e+00 
3.092243398292e+00 1.000000000000e+00 
3.092243398292e+00 1.000000000000e+00 
3.692262925377e+00 1.000000000000e+00 
3.692262925377e+00 1.000000000000e+00 
4.286282257819e+00 1.000000000000e+00 
4.286282257819e+00 1.000000000000e+00 
4.874361393554e+00 1.000000000000e+00 
4.874361393554e+00 1.000000000000e+00 
5.456559737009e+00 1.000000000000e+00 
5.456559737009e+00 1.000000000000e+00 
6.032936097574e+00 1.000000000000e+00 
6.032936097574e+00 1.000000000000e+00 
6.603548697060e+00 1.000000000000e+00 
6.603548697060e+00 1.000000000000e+00 
7.168455172392e+00 1.000000000000e+00 
7.168455172392e+00 1.000000000000e+00 
7.727712582899e+00 1.000000000000e+00 
7.727712582899e+00 1.000000000000e+00 
8.281377417235e+00 1.000000000000e+00 
8.281377417235e+00 1.000000000000e+00 
8.829505600410e+00 1.000000000000e+00 
8.829505600410e+00 1.000000000000e+00 
9.372152504958e+00 1.000000000000e+00 
9.372152504958e+00 1.000000000000e+00 
9.909372939576e+00 1.000000000000e+00 
9.909372939576e+00 1.000000000000e+00 
1.044122116975e+01 1.000000000000e+00 
1.044122116975e+01 1.000000000000e+00 
1.096775091871e+01 1.000000000000e+00 
1.096775091871e+01 1.000000000000e+00 
1.148901537033e+01 1.000000000000e+00 
1.148901537033e+01 1.000000000000e+00 
1.200506717923e+01 1.000000000000e+00 
1.200506717923e+01 1.000000000000e+00 
1.251595846821e+01 1.000000000000e+00 
1.251595846821e+01 1.000000000000e+00 
1.302174084321e+01 1.000000000000e+00 
1.302174084321e+01 1.000000000000e+00 
1.352246539472e+01 1.000000000000e+00 
1.352246539472e+01 1.000000000000e+00 
1.401818269913e+01 1.000000000000e+00 
1.401818269913e+01 1.000000000000e+00 
1.450894282899e+01 1.000000000000e+00 
1.450894282899e+01 1.000000000000e+00 
1.499479535855e+01 1.000000000000e+00 
1.499479535855e+01 1.000000000000e+00 
1.547578936484e+01 1.000000000000e+00 
1.547578936484e+01 1.000000000000e+00 
1.595197343307e+01 1.000000000000e+00 
1.595197343307e+01 1.000000000000e+00 
1.642339566196e+01 1.000000000000e+00 
1.642339566196e+01 1.000000000000e+00 
1.689010366901e+01 1.000000000000e+00 
1.689010366901e+01 1.000000000000e+00 
1.735214459558e+01 1.000000000000e+00 
1.735214459558e+01 1.000000000000e+00 
1.780956511195e+01 1.000000000000e+00 
1.780956511195e+01 1.000000000000e+00 
1.826241142222e+01 1.000000000000e+00 
1.826241142222e+01 1.000000000000e+00 
1.871072926918e+01 1.000000000000e+00 
1.871072926918e+01 1.000000000000e+00 
1.915456393904e+01 1.000000000000e+00 
1.915456393904e+01 1.000000000000e+00 
1.959396026157e+01 1.000000000000e+00 
1.959396026157e+01 1.000000000000e+00 
2.002896261924e+01 1.000000000000e+00 
2.002896261924e+01 1.000000000000e+00 
2.045961495161e+01 1.000000000000e+00 
2.045961495161e+01 1.000000000000e+00 
2.088596075978e+01 1.000000000000e+00 
2.088596075978e+01 1.000000000000e+00 
2.130804311059e+01 1.000000000000e+00 
2.130804311059e+01 1.000000000000e+00 
2.172590463641e+01 1.000000000000e+00 
2.172590463641e+01 1.000000000000e+00 
2.213958754826e+01 1.000000000000e+00 
2.213958754826e+01 1.000000000000e+00 
2.254913363059e+01 1.000000000000e+00 
2.254913363059e+01 1.000000000000e+00 
2.295458425069e+01 1.000000000000e+00 
2.295458425069e+01 1.000000000000e+00 
2.335598036530e+01 1.000000000000e+00 
2.335598036530e+01 1.000000000000e+00 
2.375336252157e+01 1.000000000000e+00 
2.375336252157e+01 1.000000000000e+00 
2.414677085528e+01 1.000000000000e+00 
2.414677085528e+01 1.000000000000e+00 
2.453624510432e+01 1.000000000000e+00 
2.453624510432e+01 1.000000000000e+00 
2.492182461094e+01 1.000000000000e+00 
2.492182461094e+01 1.000000000000e+00 
2.530354832193e+01 1.000000000000e+00 
2.530354832193e+01 1.000000000000e+00 
2.568145479587e+01 1.000000000000e+00 
2.568145479587e+01 1.000000000000e+00 
2.605558220657e+01 1.000000000000e+00 
2.605558220657e+01 1.000000000000e+00 
2.642596834625e+01 1.000000000000e+00 
2.642596834625e+01 1.000000000000e+00 
2.679265062422e+01 1.000000000000e+00 
2.679265062422e+01 1.000000000000e+00 
2.715566607898e+01 1.000000000000e+00 
2.715566607898e+01 1.000000000000e+00 
2.751505137660e+01 1.000000000000e+00 
2.751505137660e+01 1.000000000000e+00 
2.787084281845e+01 1.000000000000e+00 
2.787084281845e+01 1.000000000000e+00 
2.822307634796e+01 1.000000000000e+00 
2.822307634796e+01 1.000000000000e+00 
2.857178754480e+01 1.000000000000e+00 
2.857178754480e+01 1.000000000000e+00 
2.891701162749e+01 1.000000000000e+00 
2.891701162749e+01 1.000000000000e+00 
2.925878346974e+01 1.000000000000e+00 
2.925878346974e+01 1.000000000000e+00 
2.959713759330e+01 1.000000000000e+00 
2.959713759330e+01 1.000000000000e+00 
2.993210817615e+01 1.000000000000e+00 
2.993210817615e+01 1.000000000000e+00 
3.026372905334e+01 1.000000000000e+00 
3.026372905334e+01 1.000000000000e+00 
3.059203372075e+01 1.000000000000e+00 
3.059203372075e+01 1.000000000000e+00 
3.091705534092e+01 1.000000000000e+00 
3.091705534092e+01 1.000000000000e+00 
3.123882674631e+01 1.000000000000e+00 
3.123882674631e+01 1.000000000000e+00 
3.155738043971e+01 1.000000000000e+00 
3.155738043971e+01 1.000000000000e+00 
3.187274859355e+01 1.000000000000e+00 
3.187274859355e+01 1.000000000000e+00 
3.218496306457e+01 1.000000000000e+00 
3.218496306457e+01 1.000000000000e+00 
3.249405539135e+01 1.000000000000e+00 
3.249405539135e+01 1.000000000000e+00 
3.280005679622e+01 1.000000000000e+00 
3.280005679622e+01 1.000000000000e+00 
3.310299818707e+01 1.000000000000e+00 
3.310299818707e+01 1.000000000000e+00 
3.340291016366e+01 1.000000000000e+00 
3.340291016366e+01 1.000000000000e+00 
3.369982301923e+01 1.000000000000e+00 
3.369982301923e+01 1.000000000000e+00 
3.399376674668e+01 1.000000000000e+00 
3.399376674668e+01 1.000000000000e+00 
3.428477104003e+01 1.000000000000e+00 
3.428477104003e+01 1.000000000000e+00 
3.457286529154e+01 1.000000000000e+00 
3.457286529154e+01 1.000000000000e+00 
3.485807859763e+01 1.000000000000e+00 
3.485807859763e+01 1.000000000000e+00 
3.514043976929e+01 1.000000000000e+00 
3.514043976929e+01 1.000000000000e+00 
3.541997732867e+01 1.000000000000e+00 
3.541997732867e+01 1.000000000000e+00 
3.569671951104e+01 1.000000000000e+00 
3.569671951104e+01 1.000000000000e+00 
3.597069427381e+01 1.000000000000e+00 
3.597069427381e+01 1.000000000000e+00 
3.624192928974e+01 1.000000000000e+00 
3.624192928974e+01 1.000000000000e+00 
3.651045195665e+01 1.000000000000e+00 
3.651045195665e+01 1.000000000000e+00 
3.677628939838e+01 1.000000000000e+00 
3.677628939838e+01 1.000000000000e+00 
3.703946846595e+01 1.000000000000e+00 
3.703946846595e+01 1.000000000000e+00 
3.730001574285e+01 1.000000000000e+00 
3.730001574285e+01 1.000000000000e+00 
3.755795754602e+01 1.000000000000e+00 
3.755795754602e+01 1.000000000000e+00 
3.781331993109e+01 1.000000000000e+00 
3.781331993109e+01 1.000000000000e+00 
3.806612869319e+01 1.000000000000e+00 
3.806612869319e+01 1.000000000000e+00 
3.831640936763e+01 1.000000000000e+00 
3.831640936763e+01 1.000000000000e+00 
3.856418723513e+01 1.000000000000e+00 
3.856418723513e+01 1.000000000000e+00 
3.880948732236e+01 1.000000000000e+00 
3.880948732236e+01 1.000000000000e+00 
3.905233440706e+01 1.000000000000e+00 
3.905233440706e+01 1.000000000000e+00 
3.929275302298e+01 1.000000000000e+00 
3.929275302298e+01 1.000000000000e+00 
3.953076745137e+01 1.000000000000e+00 
3.953076745137e+01 1.000000000000e+00 
3.976640173497e+01 1.000000000000e+00 
3.976640173497e+01 1.000000000000e+00 
3.999967967818e+01 1.000000000000e+00 
3.999967967818e+01 1.000000000000e+00 
4.023062484306e+01 1.000000000000e+00 
4.023062484306e+01 1.000000000000e+00 
4.045926055401e+01 1.000000000000e+00 
4.045926055401e+01 1.000000000000e+00 
4.068560990707e+01 1.000000000000e+00 
4.068560990707e+01 1.000000000000e+00 
4.090969576990e+01 1.000000000000e+00 
4.090969576990e+01 1.000000000000e+00 
4.113154077307e+01 1.000000000000e+00 
4.113154077307e+01 1.000000000000e+00 
4.135116732364e+01 1.000000000000e+00 
4.135116732364e+01 1.000000000000e+00 
4.156859760962e+01 1.000000000000e+00 
4.156859760962e+01 1.000000000000e+00 
4.178385359541e+01 1.000000000000e+00 
4.178385359541e+01 1.000000000000e+00 
4.199695702184e+01 1.000000000000e+00 
4.199695702184e+01 1.000000000000e+00 
4.220792941056e+01 1.000000000000e+00 
4.220792941056e+01 1.000000000000e+00 
4.241679207291e+01 1.000000000000e+00 
4.241679207291e+01 1.000000000000e+00 
4.262356610959e+01 1.000000000000e+00 
4.262356610959e+01 1.000000000000e+00 
4.282827240605e+01 1.000000000000e+00 
4.282827240605e+01 1.000000000000e+00 
4.303093164118e+01 1.000000000000e+00 
4.303093164118e+01 1.000000000000e+00 
4.323156428694e+01 1.000000000000e+00 
4.323156428694e+01 1.000000000000e+00 
4.343019060359e+01 1.000000000000e+00 
4.343019060359e+01 1.000000000000e+00 
4.362683065246e+01 1.000000000000e+00 
4.362683065246e+01 1.000000000000e+00 
4.382150430172e+01 1.000000000000e+00 
4.382150430172e+01 1.000000000000e+00 
4.401423121769e+01 1.000000000000e+00 
4.401423121769e+01 1.000000000000e+00 
4.420503086325e+01 1.000000000000e+00 
4.420503086325e+01 1.000000000000e+00 
4.439392251066e+01 1.000000000000e+00 
4.439392251066e+01 1.000000000000e+00 
4.458092524236e+01 1.000000000000e+00 
4.458092524236e+01 1.000000000000e+00 
4.476605794925e+01 1.000000000000e+00 
4.476605794925e+01 1.000000000000e+00 
4.494933932822e+01 1.000000000000e+00 
4.494933932822e+01 1.000000000000e+00 
4.513078789101e+01 1.000000000000e+00 
4.513078789101e+01 1.000000000000e+00 
4.531042196729e+01 1.000000000000e+00 
4.531042196729e+01 1.000000000000e+00 
4.548825970605e+01 1.000000000000e+00 
4.548825970605e+01 1.000000000000e+00 
4.566431907053e+01 1.000000000000e+00 
4.566431907053e+01 1.000000000000e+00 
4.583861784166e+01 1.000000000000e+00 
4.583861784166e+01 1.000000000000e+00 
4.601117362396e+01 1.000000000000e+00 
4.601117362396e+01 1.000000000000e+00 
4.618200384511e+01 1.000000000000e+00 
4.618200384511e+01 1.000000000000e+00 
4.635112576390e+01 1.000000000000e+00 
4.635112576390e+01 1.000000000000e+00 
4.651855646466e+01 1.000000000000e+00 
4.651855646466e+01 1.000000000000e+00 
4.668431285618e+01 1.000000000000e+00 
4.668431285618e+01 1.000000000000e+00 
4.684841168495e+01 1.000000000000e+00 
4.684841168495e+01 1.000000000000e+00 
4.701086952767e+01 1.000000000000e+00 
4.701086952767e+01 1.000000000000e+00 
4.717170279204e+01 1.000000000000e+00 
4.717170279204e+01 1.000000000000e+00 
4.733092772362e+01 1.000000000000e+00 
4.733092772362e+01 1.000000000000e+00 
4.748856040481e+01 1.000000000000e+00 
4.748856040481e+01 1.000000000000e+00 
4.764461675807e+01 1.000000000000e+00 
4.764461675807e+01 1.000000000000e+00 
4.779911254916e+01 1.000000000000e+00 
4.779911254916e+01 1.000000000000e+00 
4.795206338129e+01 1.000000000000e+00 
4.795206338129e+01 1.000000000000e+00 
4.810348470289e+01 1.000000000000e+00 
4.810348470289e+01 1.000000000000e+00 
4.825339181508e+01 1.000000000000e+00 
4.825339181508e+01 1.000000000000e+00 
4.840179985678e+01 1.000000000000e+00 
4.840179985678e+01 1.000000000000e+00 
4.854872381696e+01 1.000000000000e+00 
4.854872381696e+01 1.000000000000e+00 
4.869417853743e+01 1.000000000000e+00 
4.869417853743e+01 1.000000000000e+00 
4.883817871152e+01 1.000000000000e+00 
4.883817871152e+01 1.000000000000e+00 
4.898073888208e+01 1.000000000000e+00 
4.898073888208e+01 1.000000000000e+00 
4.912187345071e+01 1.000000000000e+00 
4.912187345071e+01 1.000000000000e+00 
4.926159667724e+01 1.000000000000e+00 
4.926159667724e+01 1.000000000000e+00 
4.939992267246e+01 1.000000000000e+00 
4.939992267246e+01 1.000000000000e+00 
4.953686540363e+01 1.000000000000e+00 
4.953686540363e+01 1.000000000000e+00 
4.967243870789e+01 1.000000000000e+00 
4.967243870789e+01 1.000000000000e+00 
4.980665627868e+01 1.000000000000e+00 
4.980665627868e+01 1.000000000000e+00 
4.993953167226e+01 1.000000000000e+00 
4.993953167226e+01 1.000000000000e+00 
5.007107831114e+01 1.000000000000e+00 
5.007107831114e+01 1.000000000000e+00 
5.020130948645e+01 1.000000000000e+00 
5.020130948645e+01 1.000000000000e+00 
5.033023835142e+01 1.000000000000e+00 
5.033023835142e+01 1.000000000000e+00 
5.045787792802e+01 1.000000000000e+00 
5.045787792802e+01 1.000000000000e+00 
5.058424110760e+01 1.000000000000e+00 
5.058424110760e+01 1.000000000000e+00 
5.070934065408e+01 1.000000000000e+00 
5.070934065408e+01 1.000000000000e+00 
5.083318920624e+01 1.000000000000e+00 
5.083318920624e+01 1.000000000000e+00 
5.095579927155e+01 1.000000000000e+00 
5.095579927155e+01 1.000000000000e+00 
5.107718323753e+01 1.000000000000e+00 
5.107718323753e+01 1.000000000000e+00 
5.119735336526e+01 1.000000000000e+00 
5.119735336526e+01 1.000000000000e+00 
5.131632179198e+01 1.000000000000e+00 
5.131632179198e+01 1.000000000000e+00 
5.143410053342e+01 1.000000000000e+00 
5.143410053342e+01 1.000000000000e+00 
5.155070148633e+01 1.000000000000e+00 
5.155070148633e+01 1.000000000000e+00 
5.166613643079e+01 1.000000000000e+00 
5.166613643079e+01 1.000000000000e+00 
5.178041702334e+01 1.000000000000e+00 
5.178041702334e+01 1.000000000000e+00 
5.189355480987e+01 1.000000000000e+00 
5.189355480987e+01 1.000000000000e+00 
5.200556122037e+01 1.000000000000e+00 
5.200556122037e+01 1.000000000000e+00 
5.211644756527e+01 1.000000000000e+00 
5.211644756527e+01 1.000000000000e+00 
5.222622504532e+01 1.000000000000e+00 
5.222622504532e+01 1.000000000000e+00 
5.233490474913e+01 1.000000000000e+00 
5.233490474913e+01 1.000000000000e+00 
5.244249765745e+01 1.000000000000e+00 
5.244249765745e+01 1.000000000000e+00 
5.254901463690e+01 1.000000000000e+00 
5.254901463690e+01 1.000000000000e+00 
5.265446644619e+01 1.000000000000e+00 
5.265446644619e+01 1.000000000000e+00 
5.275886374073e+01 1.000000000000e+00 
5.275886374073e+01 1.000000000000e+00 
5.286221706172e+01 1.000000000000e+00 
5.286221706172e+01 1.000000000000e+00 
5.296453684737e+01 1.000000000000e+00 
5.296453684737e+01 1.000000000000e+00 
5.306583343487e+01 1.000000000000e+00 
5.306583343487e+01 1.000000000000e+00 
5.316611705806e+01 1.000000000000e+00 
5.316611705806e+01 1.000000000000e+00 
5.326539784491e+01 1.000000000000e+00 
5.326539784491e+01 1.000000000000e+00 
5.336368582425e+01 1.000000000000e+00 
5.336368582425e+01 1.000000000000e+00 
5.346099092754e+01 1.000000000000e+00 
5.346099092754e+01 1.000000000000e+00 
5.355732297761e+01 1.000000000000e+00 
5.355732297761e+01 1.000000000000e+00 
5.365269170411e+01 1.000000000000e+00 
5.365269170411e+01 1.000000000000e+00 
5.374710674534e+01 1.000000000000e+00 
5.374710674534e+01 1.000000000000e+00 
5.384057763677e+01 1.000000000000e+00 
5.384057763677e+01 1.000000000000e+00 
5.393311381755e+01 1.000000000000e+00 
5.393311381755e+01 1.000000000000e+00 
5.402472463681e+01 1.000000000000e+00 
5.402472463681e+01 1.000000000000e+00 
5.411541934658e+01 1.000000000000e+00 
5.411541934658e+01 1.000000000000e+00 
5.420520710821e+01 1.000000000000e+00 
5.420520710821e+01 1.000000000000e+00 
5.429409699415e+01 1.000000000000e+00 
5.429409699415e+01 1.000000000000e+00 
5.438209798078e+01 1.000000000000e+00 
5.438209798078e+01 1.000000000000e+00 
5.446921895934e+01 1.000000000000e+00 
5.446921895934e+01 1.000000000000e+00 
5.455546872853e+01 1.000000000000e+00 
5.455546872853e+01 1.000000000000e+00 
5.464085599656e+01 1.000000000000e+00 
5.464085599656e+01 1.000000000000e+00 
5.472538939167e+01 1.000000000000e+00 
5.472538939167e+01 1.000000000000e+00 
5.480907745498e+01 1.000000000000e+00 
5.480907745498e+01 1.000000000000e+00 
5.489192863764e+01 1.000000000000e+00 
5.489192863764e+01 1.000000000000e+00 
5.497395130722e+01 1.000000000000e+00 
5.497395130722e+01 1.000000000000e+00 
5.505515375367e+01 1.000000000000e+00 
5.505515375367e+01 1.000000000000e+00 
5.513554417759e+01 1.000000000000e+00 
5.513554417759e+01 1.000000000000e+00 
5.521513069649e+01 1.000000000000e+00 
5.521513069649e+01 1.000000000000e+00 
5.529392135081e+01 1.000000000000e+00 
5.529392135081e+01 1.000000000000e+00 
5.537192409658e+01 1.000000000000e+00 
5.537192409658e+01 1.000000000000e+00 
5.544914681159e+01 1.000000000000e+00 
5.544914681159e+01 1.000000000000e+00 
5.552559730137e+01 1.000000000000e+00 
5.552559730137e+01 1.000000000000e+00 
5.560128328727e+01 1.000000000000e+00 
5.560128328727e+01 1.000000000000e+00 
5.567621241264e+01 1.000000000000e+00 
5.567621241264e+01 1.000000000000e+00 
5.575039224878e+01 1.000000000000e+00 
5.575039224878e+01 1.000000000000e+00 
5.582383028748e+01 1.000000000000e+00 
5.582383028748e+01 1.000000000000e+00 
5.589653394258e+01 1.000000000000e+00 
5.589653394258e+01 1.000000000000e+00 
5.596851056048e+01 1.000000000000e+00 
5.596851056048e+01 1.000000000000e+00 
5.603976741252e+01 1.000000000000e+00 
5.603976741252e+01 1.000000000000e+00 
5.611031169656e+01 1.000000000000e+00 
5.611031169656e+01 1.000000000000e+00 
5.618015053832e+01 1.000000000000e+00 
5.618015053832e+01 1.000000000000e+00 
5.624929098850e+01 1.000000000000e+00 
5.624929098850e+01 1.000000000000e+00 
5.631774003304e+01 1.000000000000e+00 
5.631774003304e+01 1.000000000000e+00 
5.638550459011e+01 1.000000000000e+00 
5.638550459011e+01 1.000000000000e+00 
5.645259150240e+01 1.000000000000e+00 
5.645259150240e+01 1.000000000000e+00 
5.651900754321e+01 1.000000000000e+00 
5.651900754321e+01 1.000000000000e+00 
5.658475942665e+01 1.000000000000e+00 
5.658475942665e+01 1.000000000000e+00 
5.664985379100e+01 1.000000000000e+00 
5.664985379100e+01 1.000000000000e+00 
5.671429720923e+01 1.000000000000e+00 
5.671429720923e+01 1.000000000000e+00 
5.677809619459e+01 1.000000000000e+00 
5.677809619459e+01 1.000000000000e+00 
5.684125718858e+01 1.000000000000e+00 
5.684125718858e+01 1.000000000000e+00 
5.690378657124e+01 1.000000000000e+00 
5.690378657124e+01 1.000000000000e+00 
5.696569066236e+01 1.000000000000e+00 
5.696569066236e+01 1.000000000000e+00 
5.702697571377e+01 1.000000000000e+00 
5.702697571377e+01 1.000000000000e+00 
5.708764791523e+01 1.000000000000e+00 
5.708764791523e+01 1.000000000000e+00 
5.714771339552e+01 1.000000000000e+00 
5.714771339552e+01 1.000000000000e+00 
5.720717821929e+01 1.000000000000e+00 
5.720717821929e+01 1.000000000000e+00 
5.726604839278e+01 1.000000000000e+00 
5.726604839278e+01 1.000000000000e+00 
5.732432986497e+01 1.000000000000e+00 
5.732432986497e+01 1.000000000000e+00 
5.738202852430e+01 1.000000000000e+00 
5.738202852430e+01 1.000000000000e+00 
5.743915019538e+01 1.000000000000e+00 
5.743915019538e+01 1.000000000000e+00 
5.749570064921e+01 1.000000000000e+00 
5.749570064921e+01 1.000000000000e+00 
5.755168559972e+01 1.000000000000e+00 
5.755168559972e+01 1.000000000000e+00 
5.760711070058e+01 1.000000000000e+00 
5.760711070058e+01 1.000000000000e+00 
5.766198155070e+01 1.000000000000e+00 
5.766198155070e+01 1.000000000000e+00 
5.771630369100e+01 1.000000000000e+00 
5.771630369100e+01 1.000000000000e+00 
5.777008260993e+01 1.000000000000e+00 
5.777008260993e+01 1.000000000000e+00 
5.782332374010e+01 1.000000000000e+00 
5.782332374010e+01 1.000000000000e+00 
5.787603245940e+01 1.000000000000e+00 
5.787603245940e+01 1.000000000000e+00 
5.792821409206e+01 1.000000000000e+00 
5.792821409206e+01 1.000000000000e+00 
5.797987390975e+01 1.000000000000e+00 
5.797987390975e+01 1.000000000000e+00 
5.803101712813e+01 1.000000000000e+00 
5.803101712813e+01 1.000000000000e+00 
5.808164891248e+01 1.000000000000e+00 
5.808164891248e+01 1.000000000000e+00 
5.813177437854e+01 1.000000000000e+00 
5.813177437854e+01 1.000000000000e+00 
5.818139858949e+01 1.000000000000e+00 
5.818139858949e+01 1.000000000000e+00 
5.823052656071e+01 1.000000000000e+00 
5.823052656071e+01 1.000000000000e+00 
5.827916325255e+01 1.000000000000e+00 
5.827916325255e+01 1.000000000000e+00 
5.832731357546e+01 1.000000000000e+00 
5.832731357546e+01 1.000000000000e+00 
5.837498239560e+01 1.000000000000e+00 
5.837498239560e+01 1.000000000000e+00 
5.842217453118e+01 1.000000000000e+00 
5.842217453118e+01 1.000000000000e+00 
5.846889474458e+01 1.000000000000e+00 
5.846889474458e+01 1.000000000000e+00 
5.851514775231e+01 1.000000000000e+00 
5.851514775231e+01 1.000000000000e+00 
5.856093823042e+01 1.000000000000e+00 
5.856093823042e+01 1.000000000000e+00 
5.860627080637e+01 1.000000000000e+00 
5.860627080637e+01 1.000000000000e+00 
5.865115005556e+01 1.000000000000e+00 
5.865115005556e+01 1.000000000000e+00 
5.869558051131e+01 1.000000000000e+00 
5.869558051131e+01 1.000000000000e+00 
5.873956666562e+01 1.000000000000e+00 
5.873956666562e+01 1.000000000000e+00 
5.878311295665e+01 1.000000000000e+00 
5.878311295665e+01 1.000000000000e+00 
5.882622378324e+01 1.000000000000e+00 
5.882622378324e+01 1.000000000000e+00 
5.886890350107e+01 1.000000000000e+00 
5.886890350107e+01 1.000000000000e+00 
5.891115642376e+01 1.000000000000e+00 
5.891115642376e+01 1.000000000000e+00 
5.895298681899e+01 1.000000000000e+00 
5.895298681899e+01 1.000000000000e+00 
5.899439890965e+01 1.000000000000e+00 
5.899439890965e+01 1.000000000000e+00 
5.903539687898e+01 1.000000000000e+00 
5.903539687898e+01 1.000000000000e+00 
5.907598486707e+01 1.000000000000e+00 
5.907598486707e+01 1.000000000000e+00 
5.911616697606e+01 1.000000000000e+00 
5.911616697606e+01 1.000000000000e+00 
5.915594726203e+01 1.000000000000e+00 
5.915594726203e+01 1.000000000000e+00 
5.919532974488e+01 1.000000000000e+00 
5.919532974488e+01 1.000000000000e+00 
5.923431840449e+01 1.000000000000e+00 
5.923431840449e+01 1.000000000000e+00 
5.927291717716e+01 1.000000000000e+00 
5.927291717716e+01 1.000000000000e+00 
5.931112996087e+01 1.000000000000e+00 
5.931112996087e+01 1.000000000000e+00 
5.934896061606e+01 1.000000000000e+00 
5.934896061606e+01 1.000000000000e+00 
5.938641296640e+01 1.000000000000e+00 
5.938641296640e+01 1.000000000000e+00 
5.942349079505e+01 1.000000000000e+00 
5.942349079505e+01 1.000000000000e+00 
5.946019784545e+01 1.000000000000e+00 
5.946019784545e+01 1.000000000000e+00 
5.949653782661e+01 1.000000000000e+00 
5.949653782661e+01 1.000000000000e+00 
5.953251440928e+01 1.000000000000e+00 
5.953251440928e+01 1.000000000000e+00 
5.956813122229e+01 1.000000000000e+00 
5.956813122229e+01 1.000000000000e+00 
5.960339186677e+01 1.000000000000e+00 
5.960339186677e+01 1.000000000000e+00 
5.963829990772e+01 1.000000000000e+00 
5.963829990772e+01 1.000000000000e+00 
5.967285886591e+01 1.000000000000e+00 
5.967285886591e+01 1.000000000000e+00 
5.970707223208e+01 1.000000000000e+00 
5.970707223208e+01 1.000000000000e+00 
5.974094346756e+01 1.000000000000e+00 
5.974094346756e+01 1.000000000000e+00 
5.977447599142e+01 1.000000000000e+00 
5.977447599142e+01 1.000000000000e+00 
5.980767319038e+01 1.000000000000e+00 
5.980767319038e+01 1.000000000000e+00 
5.984053841926e+01 1.000000000000e+00 
5.984053841926e+01 1.000000000000e+00 
5.987307499282e+01 1.000000000000e+00 
5.987307499282e+01 1.000000000000e+00 
5.990528619992e+01 1.000000000000e+00 
5.990528619992e+01 1.000000000000e+00 
5.993717529504e+01 1.000000000000e+00 
5.993717529504e+01 1.000000000000e+00 
5.996874549910e+01 1.000000000000e+00 
5.996874549910e+01 1.000000000000e+00 
6.000000000000e+01 1.000000000000e+00 
6.000000000000e+01 1.000000000000e+00 
 TITLE = "Profiles along polylines"
 VARIABLES = "DIST" "SATURATION1" 
 ZONE T="TIME=1.797693134862e+308"
0.000000000000e+00 1.000000000000e+00 
0.000000000000e+00 1.000000000000e+00 
6.309419576500e-01 1.000000000000e+00 
6.309419576500e-01 1.000000000000e+00 
1.255574498818e+00 1.000000000000e+00 
1.255574498818e+00 1.000000000000e+00 
1.873960714808e+00 1.000000000000e+00 
1.873960714808e+00 1.000000000000e+00 
2.486163068583e+00 1.000000000000e+00 
2.486163068583e+00 1.000000000000e+00 
3.092243398292e+00 1.000000000000e+00 
3.092243398292e+00 1.000000000000e+00 
3.692262925377e+00 1.000000000000e+00 
3.692262925377e+00 1.000000000000e+00 
4.286282257819e+00 1.000000000000e+00 
4.286282257819e+00 1.000000000000e+00 
4.874361393554e+00 1.000000000000e+00 
4.874361393554e+00 1.000000000000e+00 
5.456559737009e+00 1.000000000000e+00 
5.456559737009e+00 1.000000000000e+00 
6.032936097574e+00 1.000000000000e+00 
6.032936097574e+00 1.000000000000e+00 
6.603548697060e+00 1.000000000000e+00 
6.603548697060e+00 1.000000000000e+00 
7.168455172392e+00 1.000000000000e+00 
7.168455172392e+00 1.000000000000e+00 
7.727712582899e+00 1.000000000000e+00 
7.727712582899e+00 1.000000000000e+00 
8.281377417235e+00 1.000000000000e+00 
8.281377417235e+00 1.000000000000e+00 
8.829505600410e+00 1.000000000000e+00 
8.829505600410e+00 1.000000000000e+00 
9.372152504958e+00 1.000000000000e+00 
9.372152504958e+00 1.000000000000e+00 
9.909372939576e+00 1.000000000000e+00 
9.909372939576e+00 1.000000000000e+00 
1.044122116975e+01 1.000000000000e+00 
1.044122116975e+01 1.000000000000e+00 
1.096775091871e+01 1.000000000000e+00 
1.096775091871e+01 1.000000000000e+00 
1.148901537033e+01 1.000000000000e+00 
1.148901537033e+01 1.000000000000e+00 
1.200506717923e+01 1.000000000000e+00 
1.200506717923e+01 1.000000000000e+00 
1.251595846821e+01 1.000000000000e+00 
1.251595846821e+01 1.000000000000e+00 
1.302174084321e+01 1.000000000000e+00 
1.302174084321e+01 1.000000000000e+00 
1.352246539472e+01 1.000000000000e+00 
1.352246539472e+01 1.000000000000e+00 
1.401818269913e+01 1.000000000000e+00 
1.401818269913e+01 1.000000000000e+00 
1.450894282899e+01 1.000000000000e+00 
1.450894282899e+01 1.000000000000e+00 
1.499479535855e+01 1.000000000000e+00 
1.499479535855e+01 1.000000000000e+00 
1.547578936484e+01 1.000000000000e+00 
1.547578936484e+01 1.000000000000e+00 
1.595197343307e+01 1.000000000000e+00 
1.595197343307e+01 1.000000000000e+00 
1.642339566196e+01 1.000000000000e+00 
1.642339566196e+01 1.000000000000e+00 
1.689010366901e+01 1.000000000000e+00 
1.689010366901e+01 1.000000000000e+00 
1.735214459558e+01 1.000000000000e+00 
1.735214459558e+01 1.000000000000e+00 
1.780956511195e+01 1.000000000000e+00 
1.780956511195e+01 1.000000000000e+00 
1.826241142222e+01 1.000000000000e+00 
1.826241142222e+01 1.000000000000e+00 
1.871072926918e+01 1.000000000000e+00 
1.871072926918e+01 1.000000000000e+00 
1.915456393904e+01 1.000000000000e+00 
1.915456393904e+01 1.000000000000e+00 
1.959396026157e+01 1.000000000000e+00 
1.959396026157e+01 1.000000000000e+00 
2.002896261924e+01 1.000000000000e+00 
2.002896261924e+01 1.000000000000e+00 
2.045961495161e+01 1.000000000000e+00 
2.045961495161e+01 1.000000000000e+00 
2.088596075978e+01 9.241845516866e-01 
2.088596075978e+01 9.291520113367e-01 
2.130804311059e+01 8.399092786325e-01 
2.130804311059e+01 8.437648420105e-01 
2.172590463641e+01 7.752593161592e-01 
2.172590463641e+01 7.782390991347e-01 
2.213958754826e+01 7.252450423110e-01 
2.213958754826e+01 7.275999294969e-01 
2.254913363059e+01 6.855413843923e-01 
2.254913363059e+01 6.874534005627e-01 
2.295458425069e+01 6.532017793213e-01 
2.295458425069e+01 6.547923157659e-01 
2.335598036530e+01 6.262691160895e-01 
2.335598036530e+01 6.276195560574e-01 
2.375336252157e+01 6.034191727476e-01 
2.375336252157e+01 6.045854527318e-01 
2.414677085528e+01 5.837307486894e-01 
2.414677085528e+01 5.847524130912e-01 
2.453624510432e+01 5.665448245176e-01 
2.453624510432e+01 5.674505893207e-01 
2.492182461094e+01 5.513776561050e-01 
2.492182461094e+01 5.521888860600e-01 
2.530354832193e+01 5.378659118805e-01 
2.530354832193e+01 5.385988486638e-01 
2.568145479587e+01 5.257311066485e-01 
2.568145479587e+01 5.263983347193e-01 
2.605558220657e+01 5.147559312297e-01 
2.605558220657e+01 5.153673668814e-01 
2.642596834625e+01 5.047681061401e-01 
2.642596834625e+01 5.053316806890e-01 
2.679265062422e+01 4.956291160684e-01 
2.679265062422e+01 4.961512580071e-01 
2.715566607898e+01 4.872261862464e-01 
2.715566607898e+01 4.877121682264e-01 
2.751505137660e+01 4.794664609135e-01 
2.751505137660e+01 4.799206539165e-01 
2.787084281845e+01 4.722727071593e-01 
2.787084281845e+01 4.726987697037e-01 
2.822307634796e+01 4.655800956558e-01 
2.822307634796e+01 4.659811167190e-01 
2.857178754480e+01 4.593337546346e-01 
2.857178754480e+01 4.597123630663e-01 
2.891701162749e+01 4.534868872263e-01 
2.891701162749e+01 4.538453365355e-01 
2.925878346974e+01 4.479993053174e-01 
2.925878346974e+01 4.483395401156e-01 
2.959713759330e+01 4.428362760175e-01 
2.959713759330e+01 4.431599846253e-01 
2.993210817615e+01 4.379676045630e-01 
2.993210817615e+01 4.382762610574e-01 
3.026372905334e+01 4.333668988210e-01 
3.026372905334e+01 4.336617969394e-01 
3.059203372075e+01 4.290109743116e-01 
3.059203372075e+01 4.292932550113e-01 
3.091705534092e+01 4.248793691302e-01 
3.091705534092e+01 4.251500431617e-01 
3.123882674631e+01 4.209539456345e-01 
3.123882674631e+01 4.212139121593e-01 
3.155738043971e+01 4.172185611535e-01 
3.155738043971e+01 4.174686232020e-01 
3.187274859355e+01 4.136587940072e-01 
3.187274859355e+01 4.138996713910e-01 
3.218496306457e+01 4.102617140158e-01 
3.218496306457e+01 4.104940541759e-01 
3.249405539135e+01 4.070156895196e-01 
3.249405539135e+01 4.072400766901e-01 
3.280005679622e+01 4.039102240481e-01 
3.280005679622e+01 4.041271870361e-01 
3.310299818707e+01 4.009358174388e-01 
3.310299818707e+01 4.011458362611e-01 
3.340291016366e+01 3.980838471504e-01 
3.340291016366e+01 3.982873587209e-01 
3.369982301923e+01 3.953464664694e-01 
3.369982301923e+01 3.955438694937e-01 
3.399376674668e+01 3.927165167606e-01 
3.399376674668e+01 3.929081759650e-01 
3.428477104003e+01 3.901874516031e-01 
3.428477104003e+01 3.903737014032e-01 
3.457286529154e+01 3.877532709545e-01 
3.457286529154e+01 3.879344186491e-01 
3.485807859763e+01 3.854084637109e-01 