 TITLE = "Profiles along polylines"
 VARIABLES = "DIST" "SATURATION1" 
 ZONE T="TIME=0.000000000000e+00"
0.000000000000e+00 1.000000000000e+00 
6.309419576500e-01 1.000000000000e+00 
1.255574498818e+00 1.000000000000e+00 
1.873960714808e+00 1.000000000000e+00 
2.486163068583e+00 1.000000000000e+00 
3.092243398292e+00 1.000000000000e+00 
3.692262925377e+00 1.000000000000e+00 
4.286282257819e+00 1.000000000000e+00 
4.874361393554e+00 1.000000000000e+00 
5.456559737009e+00 1.000000000000e+00 
6.032936097574e+00 1.000000000000e+00 
6.603548697060e+00 1.000000000000e+00 
7.168455172392e+00 1.000000000000e+00 
7.727712582899e+00 1.000000000000e+00 
8.281377417235e+00 1.000000000000e+00 
8.829505600410e+00 1.000000000000e+00 
9.372152504958e+00 1.000000000000e+00 
9.909372939576e+00 1.000000000000e+00 
1.044122116975e+01 1.000000000000e+00 
1.096775091871e+01 1.000000000000e+00 
1.148901537033e+01 1.000000000000e+00 
1.200506717923e+01 1.000000000000e+00 
1.251595846821e+01 1.000000000000e+00 
1.302174084321e+01 1.000000000000e+00 
1.352246539472e+01 1.000000000000e+00 
1.401818269913e+01 1.000000000000e+00 
1.450894282899e+01 1.000000000000e+00 
1.499479535855e+01 1.000000000000e+00 
1.547578936484e+01 1.000000000000e+00 
1.595197343307e+01 1.000000000000e+00 
1.642339566196e+01 1.000000000000e+00 
1.689010366901e+01 1.000000000000e+00 
1.735214459558e+01 1.000000000000e+00 
1.780956511195e+01 1.000000000000e+00 
1.826241142222e+01 1.000000000000e+00 
1.871072926918e+01 1.000000000000e+00 
1.915456393904e+01 1.000000000000e+00 
1.959396026157e+01 1.000000000000e+00 
2.002896261924e+01 1.000000000000e+00 
2.045961495161e+01 1.000000000000e+00 
2.088596075978e+01 1.000000000000e+00 
2.130804311059e+01 1.000000000000e+00 
2.172590463641e+01 1.000000000000e+00 
2.213958754826e+01 1.000000000000e+00 
2.254913363059e+01 1.000000000000e+00 
2.295458425069e+01 1.000000000000e+00 
2.335598036530e+01 1.000000000000e+00 
2.375336252157e+01 1.000000000000e+00 
2.414677085528e+01 1.000000000000e+00 
2.453624510432e+01 1.000000000000e+00 
2.492182461094e+01 1.000000000000e+00 
2.530354832193e+01 1.000000000000e+00 
2.568145479587e+01 1.000000000000e+00 
2.605558220657e+01 1.000000000000e+00 
2.642596834625e+01 1.000000000000e+00 
2.679265062422e+01 1.000000000000e+00 
2.715566607898e+01 1.000000000000e+00 
2.751505137660e+01 1.000000000000e+00 
2.787084281845e+01 1.000000000000e+00 
2.822307634796e+01 1.000000000000e+00 
2.857178754480e+01 1.000000000000e+00 
2.891701162749e+01 1.000000000000e+00 
2.925878346974e+01 1.000000000000e+00 
2.959713759330e+01 1.000000000000e+00 
2.993210817615e+01 1.000000000000e+00 
3.026372905334e+01 1.000000000000e+00 
3.059203372075e+01 1.000000000000e+00 
3.091705534092e+01 1.000000000000e+00 
3.123882674631e+01 1.000000000000e+00 
3.155738043971e+01 1.000000000000e+00 
3.187274859355e+01 1.000000000000e+00 
3.218496306457e+01 1.000000000000e+00 
3.249405539135e+01 1.000000000000e+00 
3.280005679622e+01 1.000000000000e+00 
3.310299818707e+01 1.000000000000e+00 
3.340291016366e+01 1.000000000000e+00 
3.369982301923e+01 1.000000000000e+00 
3.399376674668e+01 1.000000000000e+00 
3.428477104003e+01 1.000000000000e+00 
3.457286529154e+01 1.000000000000e+00 
3.485807859763e+01 1.000000000000e+00 
3.514043976929e+01 1.000000000000e+00 
3.541997732867e+01 1.000000000000e+00 
3.569671951104e+01 1.000000000000e+00 
3.597069427381e+01 1.000000000000e+00 
3.624192928974e+01 1.000000000000e+00 
3.651045195665e+01 1.000000000000e+00 
3.677628939838e+01 1.000000000000e+00 
3.703946846595e+01 1.000000000000e+00 
3.730001574285e+01 1.000000000000e+00 
3.755795754602e+01 1.000000000000e+00 
3.781331993109e+01 1.000000000000e+00 
3.806612869319e+01 1.000000000000e+00 
3.831640936763e+01 1.000000000000e+00 
3.856418723513e+01 1.000000000000e+00 
3.880948732236e+01 1.000000000000e+00 
3.905233440706e+01 1.000000000000e+00 
3.929275302298e+01 1.000000000000e+00 
3.953076745137e+01 1.000000000000e+00 
3.976640173497e+01 1.000000000000e+00 
3.999967967818e+01 1.000000000000e+00 
4.023062484306e+01 1.000000000000e+00 
4.045926055401e+01 1.000000000000e+00 
4.068560990707e+01 1.000000000000e+00 
4.090969576990e+01 1.000000000000e+00 
4.113154077307e+01 1.000000000000e+00 
4.135116732364e+01 1.000000000000e+00 
4.156859760962e+01 1.000000000000e+00 
4.178385359541e+01 1.000000000000e+00 
4.199695702184e+01 1.000000000000e+00 
4.220792941056e+01 1.000000000000e+00 
4.241679207291e+01 1.000000000000e+00 
4.262356610959e+01 1.000000000000e+00 
4.282827240605e+01 1.000000000000e+00 
4.303093164118e+01 1.000000000000e+00 
4.323156428694e+01 1.000000000000e+00 
4.343019060359e+01 1.000000000000e+00 
4.362683065246e+01 1.000000000000e+00 
4.382150430172e+01 1.000000000000e+00 
4.401423121769e+01 1.000000000000e+00 
4.420503086325e+01 1.000000000000e+00 
4.439392251066e+01 1.000000000000e+00 
4.458092524236e+01 1.000000000000e+00 
4.476605794925e+01 1.000000000000e+00 
4.494933932822e+01 1.000000000000e+00 
4.513078789101e+01 1.000000000000e+00 
4.531042196729e+01 1.000000000000e+00 
4.548825970605e+01 1.000000000000e+00 
4.566431907053e+01 1.000000000000e+00 
4.583861784166e+01 1.000000000000e+00 
4.601117362396e+01 1.000000000000e+00 
4.618200384511e+01 1.000000000000e+00 
4.635112576390e+01 1.000000000000e+00 
4.651855646466e+01 1.000000000000e+00 
4.668431285618e+01 1.000000000000e+00 
4.684841168495e+01 1.000000000000e+00 
4.701086952767e+01 1.000000000000e+00 
4.717170279204e+01 1.000000000000e+00 
4.733092772362e+01 1.000000000000e+00 
4.748856040481e+01 1.000000000000e+00 
4.764461675807e+01 1.000000000000e+00 
4.779911254916e+01 1.000000000000e+00 
4.795206338129e+01 1.000000000000e+00 
4.810348470289e+01 1.000000000000e+00 
4.825339181508e+01 1.000000000000e+00 
4.840179985678e+01 1.000000000000e+00 
4.854872381696e+01 1.000000000000e+00 
4.869417853743e+01 1.000000000000e+00 
4.883817871152e+01 1.000000000000e+00 
4.898073888208e+01 1.000000000000e+00 
4.912187345071e+01 1.000000000000e+00 
4.926159667724e+01 1.000000000000e+00 
4.939992267246e+01 1.000000000000e+00 
4.953686540363e+01 1.000000000000e+00 
4.967243870789e+01 1.000000000000e+00 
4.980665627868e+01 1.000000000000e+00 
4.993953167226e+01 1.000000000000e+00 
5.007107831114e+01 1.000000000000e+00 
5.020130948645e+01 1.000000000000e+00 
5.033023835142e+01 1.000000000000e+00 
5.045787792802e+01 1.000000000000e+00 
5.058424110760e+01 1.000000000000e+00 
5.070934065408e+01 1.000000000000e+00 
5.083318920624e+01 1.000000000000e+00 
5.095579927155e+01 1.000000000000e+00 
5.107718323753e+01 1.000000000000e+00 
5.119735336526e+01 1.000000000000e+00 
5.131632179198e+01 1.000000000000e+00 
5.143410053342e+01 1.000000000000e+00 
5.155070148633e+01 1.000000000000e+00 
5.166613643079e+01 1.000000000000e+00 
5.178041702334e+01 1.000000000000e+00 
5.189355480987e+01 1.000000000000e+00 
5.200556122037e+01 1.000000000000e+00 
5.211644756527e+01 1.000000000000e+00 
5.222622504532e+01 1.000000000000e+00 
5.233490474913e+01 1.000000000000e+00 
5.244249765745e+01 1.000000000000e+00 
5.254901463690e+01 1.000000000000e+00 
5.265446644619e+01 1.000000000000e+00 
5.275886374073e+01 1.000000000000e+00 
5.286221706172e+01 1.000000000000e+00 
5.296453684737e+01 1.000000000000e+00 
5.306583343487e+01 1.000000000000e+00 
5.316611705806e+01 1.000000000000e+00 
5.326539784491e+01 1.000000000000e+00 
5.336368582425e+01 1.000000000000e+00 
5.346099092754e+01 1.000000000000e+00 
5.355732297761e+01 1.000000000000e+00 
5.365269170411e+01 1.000000000000e+00 
5.374710674534e+01 1.000000000000e+00 
5.384057763677e+01 1.000000000000e+00 
5.393311381755e+01 1.000000000000e+00 
5.402472463681e+01 1.000000000000e+00 
5.411541934658e+01 1.000000000000e+00 
5.420520710821e+01 1.000000000000e+00 
5.429409699415e+01 1.000000000000e+00 
5.438209798078e+01 1.000000000000e+00 
5.446921895934e+01 1.000000000000e+00 
5.455546872853e+01 1.000000000000e+00 
5.464085599656e+01 1.000000000000e+00 
5.472538939167e+01 1.000000000000e+00 
5.480907745498e+01 1.000000000000e+00 
5.489192863764e+01 1.000000000000e+00 
5.497395130722e+01 1.000000000000e+00 
5.505515375367e+01 1.000000000000e+00 
5.513554417759e+01 1.000000000000e+00 
5.521513069649e+01 1.000000000000e+00 
5.529392135081e+01 1.000000000000e+00 
5.537192409658e+01 1.000000000000e+00 
5.544914681159e+01 1.000000000000e+00 
5.552559730137e+01 1.000000000000e+00 
5.560128328727e+01 1.000000000000e+00 
5.567621241264e+01 1.000000000000e+00 
5.575039224878e+01 1.000000000000e+00 
5.582383028748e+01 1.000000000000e+00 
5.589653394258e+01 1.000000000000e+00 
5.596851056048e+01 1.000000000000e+00 
5.603976741252e+01 1.000000000000e+00 
5.611031169656e+01 1.000000000000e+00 
5.618015053832e+01 1.000000000000e+00 
5.624929098850e+01 1.000000000000e+00 
5.631774003304e+01 1.000000000000e+00 
5.638550459011e+01 1.000000000000e+00 
5.645259150240e+01 1.000000000000e+00 
5.651900754321e+01 1.000000000000e+00 
5.658475942665e+01 1.000000000000e+00 
5.664985379100e+01 1.000000000000e+00 
5.671429720923e+01 1.000000000000e+00 
5.677809619459e+01 1.000000000000e+00 
5.684125718858e+01 1.000000000000e+00 
5.690378657124e+01 1.000000000000e+00 
5.696569066236e+01 1.000000000000e+00 
5.702697571377e+01 1.000000000000e+00 
5.708764791523e+01 1.000000000000e+00 
5.714771339552e+01 1.000000000000e+00 
5.720717821929e+01 1.000000000000e+00 
5.726604839278e+01 1.000000000000e+00 
5.732432986497e+01 1.000000000000e+00 
5.738202852430e+01 1.000000000000e+00 
5.743915019538e+01 1.000000000000e+00 
5.749570064921e+01 1.000000000000e+00 
5.755168559972e+01 1.000000000000e+00 
5.760711070058e+01 1.000000000000e+00 
5.766198155070e+01 1.000000000000e+00 
5.771630369100e+01 1.000000000000e+00 
5.777008260994e+01 1.000000000000e+00 
5.782332374010e+01 1.000000000000e+00 
5.787603245940e+01 1.000000000000e+00 
5.792821409206e+01 1.000000000000e+00 
5.797987390975e+01 1.000000000000e+00 
5.803101712813e+01 1.000000000000e+00 
5.808164891248e+01 1.000000000000e+00 
5.813177437854e+01 1.000000000000e+00 
5.818139858949e+01 1.000000000000e+00 
5.823052656071e+01 1.000000000000e+00 
5.827916325255e+01 1.000000000000e+00 
5.832731357546e+01 1.000000000000e+00 
5.837498239560e+01 1.000000000000e+00 
5.842217453118e+01 1.000000000000e+00 
5.846889474458e+01 1.000000000000e+00 
5.851514775231e+01 1.000000000000e+00 
5.856093823042e+01 1.000000000000e+00 
5.860627080637e+01 1.000000000000e+00 
5.865115005556e+01 1.000000000000e+00 
5.869558051131e+01 1.000000000000e+00 
5.873956666562e+01 1.000000000000e+00 
5.878311295665e+01 1.000000000000e+00 
5.882622378324e+01 1.000000000000e+00 
5.886890350107e+01 1.000000000000e+00 
5.891115642376e+01 1.000000000000e+00 
5.895298681899e+01 1.000000000000e+00 
5.899439890965e+01 1.000000000000e+00 
5.903539687898e+01 1.000000000000e+00 
5.907598486707e+01 1.000000000000e+00 
5.911616697606e+01 1.000000000000e+00 
5.915594726203e+01 1.000000000000e+00 
5.919532974488e+01 1.000000000000e+00 
5.923431840449e+01 1.000000000000e+00 
5.927291717716e+01 1.000000000000e+00 
5.931112996087e+01 1.000000000000e+00 
5.934896061606e+01 1.000000000000e+00 
5.938641296640e+01 1.000000000000e+00 
5.942349079505e+01 1.000000000000e+00 
5.946019784545e+01 1.000000000000e+00 
5.949653782661e+01 1.000000000000e+00 
5.953251440928e+01 1.000000000000e+00 
5.956813122229e+01 1.000000000000e+00 
5.960339186677e+01 1.000000000000e+00 
5.963829990772e+01 1.000000000000e+00 
5.967285886591e+01 1.000000000000e+00 
5.970707223208e+01 1.000000000000e+00 
5.974094346756e+01 1.000000000000e+00 
5.977447599142e+01 1.000000000000e+00 
5.980767319038e+01 1.000000000000e+00 
5.984053841926e+01 1.000000000000e+00 
5.987307499282e+01 1.000000000000e+00 
5.990528619992e+01 1.000000000000e+00 
5.993717529504e+01 1.000000000000e+00 
5.996874549910e+01 1.000000000000e+00 
6.000000000000e+01 1.000000000000e+00 
 TITLE = "Profiles along polylines"
 VARIABLES = "DIST" "SATURATION1" 
 ZONE T="TIME=1.797693134862e+308"
0.000000000000e+00 1.000000000000e+00 
6.309419576500e-01 1.000000000000e+00 
1.255574498818e+00 1.000000000000e+00 
1.873960714808e+00 1.000000000000e+00 
2.486163068583e+00 1.000000000000e+00 
3.092243398292e+00 1.000000000000e+00 
3.692262925377e+00 1.000000000000e+00 
4.286282257819e+00 1.000000000000e+00 
4.874361393554e+00 1.000000000000e+00 
5.456559737009e+00 1.000000000000e+00 
6.032936097574e+00 1.000000000000e+00 
6.603548697060e+00 1.000000000000e+00 
7.168455172392e+00 1.000000000000e+00 
7.727712582899e+00 1.000000000000e+00 
8.281377417235e+00 1.000000000000e+00 
8.829505600410e+00 1.000000000000e+00 
9.372152504958e+00 1.000000000000e+00 
9.909372939576e+00 1.000000000000e+00 
1.044122116975e+01 1.000000000000e+00 
1.096775091871e+01 1.000000000000e+00 
1.148901537033e+01 1.000000000000e+00 
1.200506717923e+01 1.000000000000e+00 
1.251595846821e+01 1.000000000000e+00 
1.302174084321e+01 1.000000000000e+00 
1.352246539472e+01 1.000000000000e+00 
1.401818269913e+01 1.000000000000e+00 
1.450894282899e+01 1.000000000000e+00 
1.499479535855e+01 1.000000000000e+00 
1.547578936484e+01 1.000000000000e+00 
1.595197343307e+01 1.000000000000e+00 
1.642339566196e+01 1.000000000000e+00 
1.689010366901e+01 1.000000000000e+00 
1.735214459558e+01 1.000000000000e+00 
1.780956511195e+01 1.000000000000e+00 
1.826241142222e+01 1.000000000000e+00 
1.871072926918e+01 1.000000000000e+00 
1.915456393904e+01 1.000000000000e+00 
1.959396026157e+01 1.000000000000e+00 
2.002896261924e+01 1.000000000000e+00 
2.045961495161e+01 1.000000000000e+00 
2.088596075978e+01 1.000000000000e+00 
2.130804311059e+01 1.000000000000e+00 
2.172590463641e+01 1.000000000000e+00 
2.213958754826e+01 1.000000000000e+00 
2.254913363059e+01 9.193727123462e-01 
2.295458425069e+01 8.391448043242e-01 
2.335598036530e+01 7.769098537032e-01 
2.375336252157e+01 7.283162306346e-01 
2.414677085528e+01 6.894662031714e-01 
2.453624510432e+01 6.576519619070e-01 
2.492182461094e+01 6.310476181669e-01 
2.530354832193e+01 6.084033175515e-01 
2.568145479587e+01 5.888416812979e-01 
2.605558220657e+01 5.717304995367e-01 
2.642596834625e+01 5.566029883968e-01 
2.679265062422e+01 5.431068629229e-01 
2.715566607898e+01 5.309710153187e-01 
2.751505137660e+01 5.199831702847e-01 
2.787084281845e+01 5.099745463511e-01 
2.822307634796e+01 5.008090966133e-01 
2.857178754480e+01 4.923758111988e-01 
2.891701162749e+01 4.845831096845e-01 
2.925878346974e+01 4.773546884199e-01 
2.959713759330e+01 4.706263997347e-01 
2.993210817615e+01 4.643438737991e-01 
3.026372905334e+01 4.584606840757e-01 
3.059203372075e+01 4.529369156951e-01 
3.091705534092e+01 4.477380364831e-01 
3.123882674631e+01 4.428339980611e-01 
3.155738043971e+01 4.381985137115e-01 
3.187274859355e+01 4.338084733923e-01 
3.218496306457e+01 4.296434659801e-01 
3.249405539135e+01 4.256853866668e-01 
3.280005679622e+01 4.219181119234e-01 
3.310299818707e+01 4.183272287605e-01 
3.340291016366e+01 4.148998078376e-01 
3.369982301923e+01 4.116242123649e-01 
3.399376674668e+01 4.084899362224e-01 
3.428477104003e+01 4.054874662484e-01 
3.457286529154e+01 4.026081645483e-01 
3.485807859763e+01 3.998441673514e-01 
3.514043976929e+01 3.971882977650e-01 
3.541997732867e+01 3.946339903831e-01 
3.569671951104e+01 3.921752257374e-01 
3.597069427381e+01 3.898064730882e-01 
3.624192928974e+01 3.875226405096e-01 
3.651045195665e+01 3.853190309508e-01 
3.677628939838e+01 3.831913036279e-01 
3.703946846595e+01 3.811354399377e-01 
3.730001574285e+01 3.791477132504e-01 
3.755795754602e+01 3.772246621280e-01 
3.781331993109e+01 3.753630664604e-01 
3.806612869319e+01 3.735599262081e-01 
3.831640936763e+01 3.718124423958e-01 
3.856418723513e+01 3.701180000467e-01 
3.880948732236e+01 3.684741528879e-01 
3.905233440706e+01 3.668786095549e-01 
3.929275302298e+01 3.653292211524e-01 
3.953076745137e+01 3.638239700995e-01 
3.976640173497e+01 3.623609598928e-01 
3.999967967818e+01 3.609384059079e-01 
4.023062484306e+01 3.595546270682e-01 
4.045926055401e+01 3.582080382124e-01 
4.068560990707e+01 3.568971431134e-01 
4.090969576990e+01 3.556205281575e-01 
4.113154077307e+01 3.543768566158e-01 
4.135116732364e+01 3.531648632753e-01 
4.156859760962e+01 3.519833495687e-01 
4.178385359541e+01 3.508311791488e-01 
4.199695702184e+01 3.497072737981e-01 
4.220792941056e+01 3.486106096396e-01 
4.241679207291e+01 3.475402136231e-01 
4.262356610959e+01 3.464951603288e-01 
4.282827240605e+01 3.454745690361e-01 
4.303093164118e+01 3.444776009469e-01 
4.323156428694e+01 3.435034566594e-01 
4.343019060359e+01 3.425513738467e-01 
4.362683065246e+01 3.416206250211e-01 
4.382150430172e+01 3.407105154897e-01 
4.401423121769e+01 3.398203815202e-01 
4.420503086325e+01 3.389495886023e-01 
4.439392251066e+01 3.380975297625e-01 
4.458092524236e+01 3.372636240471e-01 
4.476605794925e+01 3.364473151175e-01 
4.494933932822e+01 3.356480699411e-01 
4.513078789101e+01 3.348653775192e-01 
4.531042196729e+01 3.340987477217e-01 
4.548825970605e+01 3.333477102025e-01 
4.566431907053e+01 3.326118134107e-01 
4.583861784166e+01 3.318906236277e-01 
4.601117362396e+01 3.311837240536e-01 
4.618200384511e+01 3.304907139754e-01 
4.635112576390e+01 3.298112079509e-01 
4.651855646466e+01 3.291448350948e-01 
4.668431285618e+01 3.284912383898e-01 
4.684841168495e+01 3.278500739812e-01 
4.701086952767e+01 3.272210105929e-01 
4.717170279204e+01 3.266037289445e-01 
4.733092772362e+01 3.259979211780e-01 
4.748856040481e+01 3.254032903474e-01 
4.764461675807e+01 3.248195499188e-01 
4.779911254916e+01 3.242464232992e-01 
4.795206338129e+01 3.236836434237e-01 
4.810348470289e+01 3.231309523149e-01 
4.825339181508e+01 3.225881006674e-01 
4.840179985678e+01 3.220548475333e-01 
4.854872381696e+01 3.215309599290e-01 
4.869417853743e+01 3.210162124939e-01 
4.883817871152e+01 3.205103871825e-01 
4.898073888208e+01 3.200132729733e-01 
4.912187345071e+01 3.195246655541e-01 
4.926159667724e+01 3.190443670561e-01 
4.939992267246e+01 3.185721858239e-01 
4.953686540363e+01 3.181079361542e-01 
4.967243870789e+01 3.176514380194e-01 
4.980665627868e+01 3.172025168958e-01 
4.993953167226e+01 3.167610035323e-01 
5.007107831114e+01 3.163267337402e-01 
5.020130948645e+01 3.158995481973e-01 
5.033023835142e+01 3.154792922883e-01 
5.045787792802e+01 3.150658159116e-01 
5.058424110760e+01 3.146589733131e-01 
5.070934065408e+01 3.142586229197e-01 
5.083318920624e+01 3.138646271832e-01 
5.095579927155e+01 3.134768524571e-01 
5.107718323753e+01 3.130951688251e-01 
5.119735336526e+01 3.127194499911e-01 
5.131632179198e+01 3.123495731475e-01 
5.143410053342e+01 3.119854188484e-01 
5.155070148633e+01 3.116268708886e-01 
5.166613643079e+01 3.112738161882e-01 
5.178041702334e+01 3.109261447094e-01 
5.189355480987e+01 3.105837493173e-01 
5.200556122037e+01 3.102465257014e-01 
5.211644756527e+01 3.099143722948e-01 
5.222622504532e+01 3.095871901571e-01 
5.233490474913e+01 3.092648828979e-01 
5.244249765745e+01 3.089473565839e-01 
5.254901463690e+01 3.086345196803e-01 
5.265446644619e+01 3.083262829585e-01 
5.275886374073e+01 3.080225594118e-01 
5.286221706172e+01 3.077232642189e-01 
5.296453684737e+01 3.074283146457e-01 
5.306583343487e+01 3.071376299774e-01 
5.316611705806e+01 3.068511314645e-01 
5.326539784491e+01 3.065687422723e-01 
5.336368582425e+01 3.062903874057e-01 
5.346099092754e+01 3.060159936510e-01 
5.355732297761e+01 3.057454895561e-01 
5.365269170411e+01 3.054788053371e-01 
5.374710674534e+01 3.052158728259e-01 
5.384057763677e+01 3.049566254567e-01 
5.393311381755e+01 3.047009982033e-01 
5.402472463681e+01 3.044489275192e-01 
5.411541934658e+01 3.042003513165e-01 
5.420520710821e+01 3.039552089087e-01 
5.429409699415e+01 3.037134409679e-01 
5.438209798078e+01 3.034749895081e-01 
5.446921895934e+01 3.032397978196e-01 
5.455546872853e+01 3.030078104558e-01 
5.464085599656e+01 3.027789731944e-01 
5.472538939167e+01 3.025532329775e-01 
5.480907745498e+01 3.023305379009e-01 
5.489192863764e+01 3.021108371918e-01 
5.497395130722e+01 3.018940811638e-01 
5.505515375367e+01 3.016802211732e-01 
5.513554417759e+01 3.014692096245e-01 
5.521513069649e+01 3.012609999273e-01 
5.529392135081e+01 3.010555464568e-01 
5.537192409658e+01 3.008528045486e-01 
5.544914681159e+01 3.006527304599e-01 
5.552559730137e+01 3.004552813319e-01 
5.560128328727e+01 3.002604151994e-01 
5.567621241264e+01 3.000680909533e-01 
5.575039224878e+01 2.998782683064e-01 
5.582383028748e+01 2.996909077924e-01 
5.589653394258e+01 2.995059707431e-01 
5.596851056048e+01 2.993234192440e-01 
5.603976741252e+01 2.991432161359e-01 
5.611031169656e+01 2.989653249940e-01 
5.618015053832e+01 2.987897101081e-01 
5.624929098850e+01 2.986163364741e-01 
5.631774003304e+01 2.984451697525e-01 
5.638550459011e+01 2.982761762617e-01 
5.645259150240e+01 2.981093229824e-01 
5.651900754321e+01 2.979445775287e-01 
5.658475942665e+01 2.977819081089e-01 
5.664985379100e+01 2.976212835545e-01 
5.671429720923e+01 2.974626732805e-01 
5.677809619459e+01 2.973060472602e-01 
5.684125718858e+01 2.971513760425e-01 
5.690378657124e+01 2.969986307150e-01 
5.696569066236e+01 2.968477828905e-01 
5.702697571377e+01 2.966988047143e-01 
5.708764791523e+01 2.965516688401e-01 
5.714771339552e+01 2.964063484163e-01 
5.720717821929e+01 2.962628170846e-01 
5.726604839278e+01 2.961210489561e-01 
5.732432986497e+01 2.959810185994e-01 
5.738202852430e+01 2.958427010396e-01 
5.743915019538e+01 2.957060717577e-01 
5.749570064921e+01 2.955711066568e-01 
5.755168559972e+01 2.954377820632e-01 
5.760711070058e+01 2.953060747254e-01 
5.766198155070e+01 2.951759617933e-01 
5.771630369100e+01 2.950474208188e-01 
5.777008260994e+01 2.949204297349e-01 
5.782332374010e+01 2.947949668569e-01 
5.787603245940e+01 2.946710108727e-01 
5.792821409206e+01 2.945485408341e-01 
5.797987390975e+01 2.944275361470e-01 
5.803101712813e+01 2.943079765738e-01 
5.808164891248e+01 2.941898422138e-01 
5.813177437854e+01 2.940731134951e-01 
5.818139858949e+01 2.939577711767e-01 
5.823052656071e+01 2.938437963309e-01 
5.827916325255e+01 2.937311703551e-01 
5.832731357546e+01 2.936198749546e-01 
5.837498239560e+01 2.935098921242e-01 
5.842217453118e+01 2.934012041520e-01 
5.846889474458e+01 2.932937936326e-01 
5.851514775231e+01 2.931876434392e-01 
5.856093823042e+01 2.930827367069e-01 
5.860627080637e+01 2.929790568467e-01 
5.865115005556e+01 2.928765875492e-01 
5.869558051131e+01 2.927753127573e-01 
5.873956666562e+01 2.926752166608e-01 
5.878311295665e+01 2.925762837206e-01 
5.882622378324e+01 2.924784986317e-01 
5.886890350107e+01 2.923818463285e-01 
5.891115642376e+01 2.922863119783e-01 
5.895298681899e+01 2.921918809866e-01 
5.899439890965e+01 2.920985389911e-01 
5.903539687898e+01 2.920062718466e-01 
5.907598486707e+01 2.919150656295e-01 
5.911616697606e+01 2.918249066231e-01 
5.915594726203e+01 2.917357813326e-01 
5.919532974488e+01 2.916476764597e-01 
5.923431840449e+01 2.915605789087e-01 
5.927291717716e+01 2.914744757910e-01 
5.931112996087e+01 2.913893544110e-01 
5.934896061606e+01 2.913052022613e-01 
5.938641296640e+01 2.912220070187e-01 
5.942349079505e+01 2.911397565494e-01 
5.946019784545e+01 2.910584389051e-01 
5.949653782661e+01 2.909780423088e-01 
5.953251440928e+01 2.908985551607e-01 
5.956813122229e+01 2.908199660441e-01 
5.960339186677e+01 2.907422636913e-01 
5.963829990772e+01 2.906654370009e-01 
5.967285886591e+01 2.905894750524e-01 
5.970707223208e+01 2.905143670735e-01 
5.974094346756e+01 2.904401024368e-01 
5.977447599142e+01 2.903666706854e-01 
5.980767319038e+01 2.902940615097e-01 
5.984053841926e+01 2.902222647445e-01 
5.987307499282e+01 2.901512703846e-01 
5.990528619992e+01 2.900810685526e-01 
5.993717529504e+01 2.900116495151e-01 
5.996874549910e+01 2.899430036797e-01 
6.000000000000e+01 2.898751215513e-01 
