 TITLE = "Profiles along polylines"
 VARIABLES = "DIST" "SATURATION1" 
 ZONE T="TIME=0.000000000000e+00"
0.000000000000e+00 1.000000000000e+00 
6.309419576500e-01 1.000000000000e+00 
1.255574498818e+00 1.000000000000e+00 
1.873960714808e+00 1.000000000000e+00 
2.486163068583e+00 1.000000000000e+00 
3.092243398292e+00 1.000000000000e+00 
3.692262925377e+00 1.000000000000e+00 
4.286282257819e+00 1.000000000000e+00 
4.874361393554e+00 1.000000000000e+00 
5.456559737009e+00 1.000000000000e+00 
6.032936097574e+00 1.000000000000e+00 
6.603548697060e+00 1.000000000000e+00 
7.168455172392e+00 1.000000000000e+00 
7.727712582899e+00 1.000000000000e+00 
8.281377417235e+00 1.000000000000e+00 
8.829505600410e+00 1.000000000000e+00 
9.372152504958e+00 1.000000000000e+00 
9.909372939576e+00 1.000000000000e+00 
1.044122116975e+01 1.000000000000e+00 
1.096775091871e+01 1.000000000000e+00 
1.148901537033e+01 1.000000000000e+00 
1.200506717923e+01 1.000000000000e+00 
1.251595846821e+01 1.000000000000e+00 
1.302174084321e+01 1.000000000000e+00 
1.352246539472e+01 1.000000000000e+00 
1.401818269913e+01 1.000000000000e+00 
1.450894282899e+01 1.000000000000e+00 
1.499479535855e+01 1.000000000000e+00 
1.547578936484e+01 1.000000000000e+00 
1.595197343307e+01 1.000000000000e+00 
1.642339566196e+01 1.000000000000e+00 
1.689010366901e+01 1.000000000000e+00 
1.735214459558e+01 1.000000000000e+00 
1.780956511195e+01 1.000000000000e+00 
1.826241142222e+01 1.000000000000e+00 
1.871072926918e+01 1.000000000000e+00 
1.915456393904e+01 1.000000000000e+00 
1.959396026157e+01 1.000000000000e+00 
2.002896261924e+01 1.000000000000e+00 
2.045961495161e+01 1.000000000000e+00 
2.088596075978e+01 1.000000000000e+00 
2.130804311059e+01 1.000000000000e+00 
2.172590463641e+01 1.000000000000e+00 
2.213958754826e+01 1.000000000000e+00 
2.254913363059e+01 1.000000000000e+00 
2.295458425069e+01 1.000000000000e+00 
2.335598036530e+01 1.000000000000e+00 
2.375336252157e+01 1.000000000000e+00 
2.414677085528e+01 1.000000000000e+00 
2.453624510432e+01 1.000000000000e+00 
2.492182461094e+01 1.000000000000e+00 
2.530354832193e+01 1.000000000000e+00 
2.568145479587e+01 1.000000000000e+00 
2.605558220657e+01 1.000000000000e+00 
2.642596834625e+01 1.000000000000e+00 
2.679265062422e+01 1.000000000000e+00 
2.715566607898e+01 1.000000000000e+00 
2.751505137660e+01 1.000000000000e+00 
2.787084281845e+01 1.000000000000e+00 
2.822307634796e+01 1.000000000000e+00 
2.857178754480e+01 1.000000000000e+00 
2.891701162749e+01 1.000000000000e+00 
2.925878346974e+01 1.000000000000e+00 
2.959713759330e+01 1.000000000000e+00 
2.993210817615e+01 1.000000000000e+00 
3.026372905334e+01 1.000000000000e+00 
3.059203372075e+01 1.000000000000e+00 
3.091705534092e+01 1.000000000000e+00 
3.123882674631e+01 1.000000000000e+00 
3.155738043971e+01 1.000000000000e+00 
3.187274859355e+01 1.000000000000e+00 
3.218496306457e+01 1.000000000000e+00 
3.249405539135e+01 1.000000000000e+00 
3.280005679622e+01 1.000000000000e+00 
3.310299818707e+01 1.000000000000e+00 
3.340291016366e+01 1.000000000000e+00 
3.369982301923e+01 1.000000000000e+00 
3.399376674668e+01 1.000000000000e+00 
3.428477104003e+01 1.000000000000e+00 
3.457286529154e+01 1.000000000000e+00 
3.485807859763e+01 1.000000000000e+00 
3.514043976929e+01 1.000000000000e+00 
3.541997732867e+01 1.000000000000e+00 
3.569671951104e+01 1.000000000000e+00 
3.597069427381e+01 1.000000000000e+00 
3.624192928974e+01 1.000000000000e+00 
3.651045195665e+01 1.000000000000e+00 
3.677628939838e+01 1.000000000000e+00 
3.703946846595e+01 1.000000000000e+00 
3.730001574285e+01 1.000000000000e+00 
3.755795754602e+01 1.000000000000e+00 
3.781331993109e+01 1.000000000000e+00 
3.806612869319e+01 1.000000000000e+00 
3.831640936763e+01 1.000000000000e+00 
3.856418723513e+01 1.000000000000e+00 
3.880948732236e+01 1.000000000000e+00 
3.905233440706e+01 1.000000000000e+00 
3.929275302298e+01 1.000000000000e+00 
3.953076745137e+01 1.000000000000e+00 
3.976640173497e+01 1.000000000000e+00 
3.999967967818e+01 1.000000000000e+00 
4.023062484306e+01 1.000000000000e+00 
4.045926055401e+01 1.000000000000e+00 
4.068560990707e+01 1.000000000000e+00 
4.090969576990e+01 1.000000000000e+00 
4.113154077307e+01 1.000000000000e+00 
4.135116732364e+01 1.000000000000e+00 
4.156859760962e+01 1.000000000000e+00 
4.178385359541e+01 1.000000000000e+00 
4.199695702184e+01 1.000000000000e+00 
4.220792941056e+01 1.000000000000e+00 
4.241679207291e+01 1.000000000000e+00 
4.262356610959e+01 1.000000000000e+00 
4.282827240605e+01 1.000000000000e+00 
4.303093164118e+01 1.000000000000e+00 
4.323156428694e+01 1.000000000000e+00 
4.343019060359e+01 1.000000000000e+00 
4.362683065246e+01 1.000000000000e+00 
4.382150430172e+01 1.000000000000e+00 
4.401423121769e+01 1.000000000000e+00 
4.420503086325e+01 1.000000000000e+00 
4.439392251066e+01 1.000000000000e+00 
4.458092524236e+01 1.000000000000e+00 
4.476605794925e+01 1.000000000000e+00 
4.494933932822e+01 1.000000000000e+00 
4.513078789101e+01 1.000000000000e+00 
4.531042196729e+01 1.000000000000e+00 
4.548825970605e+01 1.000000000000e+00 
4.566431907053e+01 1.000000000000e+00 
4.583861784166e+01 1.000000000000e+00 
4.601117362396e+01 1.000000000000e+00 
4.618200384511e+01 1.000000000000e+00 
4.635112576390e+01 1.000000000000e+00 
4.651855646466e+01 1.000000000000e+00 
4.668431285618e+01 1.000000000000e+00 
4.684841168495e+01 1.000000000000e+00 
4.701086952767e+01 1.000000000000e+00 
4.717170279204e+01 1.000000000000e+00 
4.733092772362e+01 1.000000000000e+00 
4.748856040481e+01 1.000000000000e+00 
4.764461675807e+01 1.000000000000e+00 
4.779911254916e+01 1.000000000000e+00 
4.795206338129e+01 1.000000000000e+00 
4.810348470289e+01 1.000000000000e+00 
4.825339181508e+01 1.000000000000e+00 
4.840179985678e+01 1.000000000000e+00 
4.854872381696e+01 1.000000000000e+00 
4.869417853743e+01 1.000000000000e+00 
4.883817871152e+01 1.000000000000e+00 
4.898073888208e+01 1.000000000000e+00 
4.912187345071e+01 1.000000000000e+00 
4.926159667724e+01 1.000000000000e+00 
4.939992267246e+01 1.000000000000e+00 
4.953686540363e+01 1.000000000000e+00 
4.967243870789e+01 1.000000000000e+00 
4.980665627868e+01 1.000000000000e+00 
4.993953167226e+01 1.000000000000e+00 
5.007107831114e+01 1.000000000000e+00 
5.020130948645e+01 1.000000000000e+00 
5.033023835142e+01 1.000000000000e+00 
5.045787792802e+01 1.000000000000e+00 
5.058424110760e+01 1.000000000000e+00 
5.070934065408e+01 1.000000000000e+00 
5.083318920624e+01 1.000000000000e+00 
5.095579927155e+01 1.000000000000e+00 
5.107718323753e+01 1.000000000000e+00 
5.119735336526e+01 1.000000000000e+00 
5.131632179198e+01 1.000000000000e+00 
5.143410053342e+01 1.000000000000e+00 
5.155070148633e+01 1.000000000000e+00 
5.166613643079e+01 1.000000000000e+00 
5.178041702334e+01 1.000000000000e+00 
5.189355480987e+01 1.000000000000e+00 
5.200556122037e+01 1.000000000000e+00 
5.211644756527e+01 1.000000000000e+00 
5.222622504532e+01 1.000000000000e+00 
5.233490474913e+01 1.000000000000e+00 
5.244249765745e+01 1.000000000000e+00 
5.254901463690e+01 1.000000000000e+00 
5.265446644619e+01 1.000000000000e+00 
5.275886374073e+01 1.000000000000e+00 
5.286221706172e+01 1.000000000000e+00 
5.296453684737e+01 1.000000000000e+00 
5.306583343487e+01 1.000000000000e+00 
5.316611705806e+01 1.000000000000e+00 
5.326539784491e+01 1.000000000000e+00 
5.336368582425e+01 1.000000000000e+00 
5.346099092754e+01 1.000000000000e+00 
5.355732297761e+01 1.000000000000e+00 
5.365269170411e+01 1.000000000000e+00 
5.374710674534e+01 1.000000000000e+00 
5.384057763677e+01 1.000000000000e+00 
5.393311381755e+01 1.000000000000e+00 
5.402472463681e+01 1.000000000000e+00 
5.411541934658e+01 1.000000000000e+00 
5.420520710821e+01 1.000000000000e+00 
5.429409699415e+01 1.000000000000e+00 
5.438209798078e+01 1.000000000000e+00 
5.446921895934e+01 1.000000000000e+00 
5.455546872853e+01 1.000000000000e+00 
5.464085599656e+01 1.000000000000e+00 
5.472538939167e+01 1.000000000000e+00 
5.480907745498e+01 1.000000000000e+00 
5.489192863764e+01 1.000000000000e+00 
5.497395130722e+01 1.000000000000e+00 
5.505515375367e+01 1.000000000000e+00 
5.513554417759e+01 1.000000000000e+00 
5.521513069649e+01 1.000000000000e+00 
5.529392135081e+01 1.000000000000e+00 
5.537192409658e+01 1.000000000000e+00 
5.544914681159e+01 1.000000000000e+00 
5.552559730137e+01 1.000000000000e+00 
5.560128328727e+01 1.000000000000e+00 
5.567621241264e+01 1.000000000000e+00 
5.575039224878e+01 1.000000000000e+00 
5.582383028748e+01 1.000000000000e+00 
5.589653394258e+01 1.000000000000e+00 
5.596851056048e+01 1.000000000000e+00 
5.603976741252e+01 1.000000000000e+00 
5.611031169656e+01 1.000000000000e+00 
5.618015053832e+01 1.000000000000e+00 
5.624929098850e+01 1.000000000000e+00 
5.631774003304e+01 1.000000000000e+00 
5.638550459011e+01 1.000000000000e+00 
5.645259150240e+01 1.000000000000e+00 
5.651900754321e+01 1.000000000000e+00 
5.658475942665e+01 1.000000000000e+00 
5.664985379100e+01 1.000000000000e+00 
5.671429720923e+01 1.000000000000e+00 
5.677809619459e+01 1.000000000000e+00 
5.684125718858e+01 1.000000000000e+00 
5.690378657124e+01 1.000000000000e+00 
5.696569066236e+01 1.000000000000e+00 
5.702697571377e+01 1.000000000000e+00 
5.708764791523e+01 1.000000000000e+00 
5.714771339552e+01 1.000000000000e+00 
5.720717821929e+01 1.000000000000e+00 
5.726604839278e+01 1.000000000000e+00 
5.732432986497e+01 1.000000000000e+00 
5.738202852430e+01 1.000000000000e+00 
5.743915019538e+01 1.000000000000e+00 
5.749570064921e+01 1.000000000000e+00 
5.755168559972e+01 1.000000000000e+00 
5.760711070058e+01 1.000000000000e+00 
5.766198155070e+01 1.000000000000e+00 
5.771630369100e+01 1.000000000000e+00 
5.777008260993e+01 1.000000000000e+00 
5.782332374010e+01 1.000000000000e+00 
5.787603245940e+01 1.000000000000e+00 
5.792821409206e+01 1.000000000000e+00 
5.797987390975e+01 1.000000000000e+00 
5.803101712813e+01 1.000000000000e+00 
5.808164891248e+01 1.000000000000e+00 
5.813177437854e+01 1.000000000000e+00 
5.818139858949e+01 1.000000000000e+00 
5.823052656071e+01 1.000000000000e+00 
5.827916325255e+01 1.000000000000e+00 
5.832731357546e+01 1.000000000000e+00 
5.837498239560e+01 1.000000000000e+00 
5.842217453118e+01 1.000000000000e+00 
5.846889474458e+01 1.000000000000e+00 
5.851514775231e+01 1.000000000000e+00 
5.856093823042e+01 1.000000000000e+00 
5.860627080637e+01 1.000000000000e+00 
5.865115005556e+01 1.000000000000e+00 
5.869558051131e+01 1.000000000000e+00 
5.873956666562e+01 1.000000000000e+00 
5.878311295665e+01 1.000000000000e+00 
5.882622378324e+01 1.000000000000e+00 
5.886890350107e+01 1.000000000000e+00 
5.891115642376e+01 1.000000000000e+00 
5.895298681899e+01 1.000000000000e+00 
5.899439890965e+01 1.000000000000e+00 
5.903539687898e+01 1.000000000000e+00 
5.907598486707e+01 1.000000000000e+00 
5.911616697606e+01 1.000000000000e+00 
5.915594726203e+01 1.000000000000e+00 
5.919532974488e+01 1.000000000000e+00 
5.923431840449e+01 1.000000000000e+00 
5.927291717716e+01 1.000000000000e+00 
5.931112996087e+01 1.000000000000e+00 
5.934896061606e+01 1.000000000000e+00 
5.938641296640e+01 1.000000000000e+00 
5.942349079505e+01 1.000000000000e+00 
5.946019784545e+01 1.000000000000e+00 
5.949653782661e+01 1.000000000000e+00 
5.953251440928e+01 1.000000000000e+00 
5.956813122229e+01 1.000000000000e+00 
5.960339186677e+01 1.000000000000e+00 
5.963829990772e+01 1.000000000000e+00 
5.967285886591e+01 1.000000000000e+00 
5.970707223208e+01 1.000000000000e+00 
5.974094346756e+01 1.000000000000e+00 
5.977447599142e+01 1.000000000000e+00 
5.980767319038e+01 1.000000000000e+00 
5.984053841926e+01 1.000000000000e+00 
5.987307499282e+01 1.000000000000e+00 
5.990528619992e+01 1.000000000000e+00 
5.993717529504e+01 1.000000000000e+00 
5.996874549910e+01 1.000000000000e+00 
6.000000000000e+01 1.000000000000e+00 
 TITLE = "Profiles along polylines"
 VARIABLES = "DIST" "SATURATION1" 
 ZONE T="TIME=1.797693134862e+308"
0.000000000000e+00 1.000000000000e+00 
6.309419576500e-01 1.000000000000e+00 
1.255574498818e+00 1.000000000000e+00 
1.873960714808e+00 1.000000000000e+00 
2.486163068583e+00 1.000000000000e+00 
3.092243398292e+00 1.000000000000e+00 
3.692262925377e+00 1.000000000000e+00 
4.286282257819e+00 1.000000000000e+00 
4.874361393554e+00 1.000000000000e+00 
5.456559737009e+00 1.000000000000e+00 
6.032936097574e+00 1.000000000000e+00 
6.603548697060e+00 1.000000000000e+00 
7.168455172392e+00 1.000000000000e+00 
7.727712582899e+00 1.000000000000e+00 
8.281377417235e+00 1.000000000000e+00 
8.829505600410e+00 1.000000000000e+00 
9.372152504958e+00 1.000000000000e+00 
9.909372939576e+00 1.000000000000e+00 
1.044122116975e+01 1.000000000000e+00 
1.096775091871e+01 1.000000000000e+00 
1.148901537033e+01 1.000000000000e+00 
1.200506717923e+01 1.000000000000e+00 
1.251595846821e+01 1.000000000000e+00 
1.302174084321e+01 1.000000000000e+00 
1.352246539472e+01 1.000000000000e+00 
1.401818269913e+01 1.000000000000e+00 
1.450894282899e+01 1.000000000000e+00 
1.499479535855e+01 1.000000000000e+00 
1.547578936484e+01 1.000000000000e+00 
1.595197343307e+01 1.000000000000e+00 
1.642339566196e+01 1.000000000000e+00 
1.689010366901e+01 1.000000000000e+00 
1.735214459558e+01 1.000000000000e+00 
1.780956511195e+01 1.000000000000e+00 
1.826241142222e+01 1.000000000000e+00 
1.871072926918e+01 1.000000000000e+00 
1.915456393904e+01 1.000000000000e+00 
1.959396026157e+01 1.000000000000e+00 
2.002896261924e+01 1.000000000000e+00 
2.045961495161e+01 1.000000000000e+00 
2.088596075978e+01 1.000000000000e+00 
2.130804311059e+01 1.000000000000e+00 
2.172590463641e+01 1.000000000000e+00 
2.213958754826e+01 9.629371903193e-01 
2.254913363059e+01 8.734356991706e-01 
2.295458425069e+01 8.030765624154e-01 
2.335598036530e+01 7.486075548520e-01 
2.375336252157e+01 7.055936445546e-01 
2.414677085528e+01 6.707691110107e-01 
2.453624510432e+01 6.419289679488e-01 
2.492182461094e+01 6.175802555211e-01 
2.530354832193e+01 5.966887192687e-01 
2.568145479587e+01 5.785185984395e-01 
2.605558220657e+01 5.625329432827e-01 
2.642596834625e+01 5.483306902093e-01 
2.679265062422e+01 5.356060062920e-01 
2.715566607898e+01 5.241213565660e-01 
2.751505137660e+01 5.136892252339e-01 
2.787084281845e+01 5.041594260511e-01 
2.822307634796e+01 4.954101085836e-01 
2.857178754480e+01 4.873412626118e-01 
2.891701162749e+01 4.798699450829e-01 
2.925878346974e+01 4.729267174595e-01 
2.959713759330e+01 4.664529490459e-01 
2.993210817615e+01 4.603987484297e-01 
3.026372905334e+01 4.547213580882e-01 
3.059203372075e+01 4.493838945984e-01 
3.091705534092e+01 4.443543500628e-01 
3.123882674631e+01 4.396047932581e-01 
3.155738043971e+01 4.351107250523e-01 
3.187274859355e+01 4.308505541061e-01 
3.218496306457e+01 4.268051670337e-01 
3.249405539135e+01 4.229575739360e-01 
3.280005679622e+01 4.192926139584e-01 
3.310299818707e+01 4.157967092708e-01 
3.340291016366e+01 4.124576582871e-01 
3.369982301923e+01 4.092644610289e-01 
3.399376674668e+01 4.062071708027e-01 
3.428477104003e+01 4.032767677182e-01 
3.457286529154e+01 4.004650503461e-01 
3.485807859763e+01 3.977645424004e-01 
3.514043976929e+01 3.951684120754e-01 
3.541997732867e+01 3.926704022109e-01 
3.569671951104e+01 3.902647694592e-01 
3.597069427381e+01 3.879462310936e-01 
3.624192928974e+01 3.857099185283e-01 
3.651045195665e+01 3.835513363287e-01 
3.677628939838e+01 3.814663261438e-01 
3.703946846595e+01 3.794510348152e-01 
3.730001574285e+01 3.775018860738e-01 
3.755795754602e+01 3.756155554143e-01 
3.781331993109e+01 3.737889476765e-01 
3.806612869319e+01 3.720191770519e-01 
3.831640936763e+01 3.703035491857e-01 
3.856418723513e+01 3.686395450873e-01 
3.880948732236e+01 3.670248066957e-01 
3.905233440706e+01 3.654571238444e-01 
3.929275302298e+01 3.639344224967e-01 
3.953076745137e+01 3.624547541879e-01 
3.976640173497e+01 3.610162863217e-01 
3.999967967818e+01 3.596172934469e-01 
4.023062484306e+01 3.582561493500e-01 
4.045926055401e+01 3.569313198026e-01 
4.068560990707e+01 3.556413559220e-01 
4.090969576990e+01 3.543848881564e-01 
4.113154077307e+01 3.531606208312e-01 
4.135116732364e+01 3.519673270303e-01 
4.156859760962e+01 3.508038439495e-01 
4.178385359541e+01 3.496690686752e-01 
4.199695702184e+01 3.485619542768e-01 
4.220792941056e+01 3.474815061853e-01 
4.241679207291e+01 3.464267788322e-01 
4.262356610959e+01 3.453968725909e-01 
4.282827240605e+01 3.443909309712e-01 
4.303093164118e+01 3.434081379581e-01 
4.323156428694e+01 3.424477155902e-01 
4.343019060359e+01 3.415089217345e-01 
4.362683065246e+01 3.405910479391e-01 
4.382150430172e+01 3.396934174701e-01 
4.401423121769e+01 3.388153835508e-01 
4.420503086325e+01 3.379563276909e-01 
4.439392251066e+01 3.371156580648e-01 
4.458092524236e+01 3.362928080526e-01 
4.476605794925e+01 3.354872348883e-01 
4.494933932822e+01 3.346984183997e-01 
4.513078789101e+01 3.339258597820e-01 
4.531042196729e+01 3.331690804752e-01 
4.548825970605e+01 3.324276211176e-01 
4.566431907053e+01 3.317010405934e-01 
4.583861784166e+01 3.309889151032e-01 
4.601117362396e+01 3.302908372816e-01 
4.618200384511e+01 3.296064153942e-01 
4.635112576390e+01 3.289352725487e-01 
4.651855646466e+01 3.282770460059e-01 
4.668431285618e+01 3.276313865134e-01 
4.684841168495e+01 3.269979576229e-01 
4.701086952767e+01 3.263764351259e-01 
4.717170279204e+01 3.257665064895e-01 
4.733092772362e+01 3.251678703015e-01 
4.748856040481e+01 3.245802357758e-01 
4.764461675807e+01 3.240033222684e-01 
4.779911254916e+01 3.234368588206e-01 
4.795206338129e+01 3.228805837597e-01 
4.810348470289e+01 3.223342442707e-01 
4.825339181508e+01 3.217975959940e-01 
4.840179985678e+01 3.212704027206e-01 
4.854872381696e+01 3.207524360098e-01 
4.869417853743e+01 3.202434748589e-01 
4.883817871152e+01 3.197433054031e-01 
4.898073888208e+01 3.192517206339e-01 
4.912187345071e+01 3.187685200928e-01 
4.926159667724e+01 3.182935096127e-01 
4.939992267246e+01 3.178265010955e-01 
4.953686540363e+01 3.173673122572e-01 
4.967243870789e+01 3.169157663593e-01 
4.980665627868e+01 3.164716920414e-01 
4.993953167226e+01 3.160349230972e-01 
5.007107831114e+01 3.156052982690e-01 
5.020130948645e+01 3.151826610571e-01 
5.033023835142e+01 3.147668595656e-01 
5.045787792802e+01 3.143577463127e-01 
5.058424110760e+01 3.139551780703e-01 
5.070934065408e+01 3.135590157006e-01 
5.083318920624e+01 3.131691240047e-01 
5.095579927155e+01 3.127853716028e-01 
5.107718323753e+01 3.124076307660e-01 
5.119735336526e+01 3.120357773104e-01 
5.131632179198e+01 3.116696904677e-01 
5.143410053342e+01 3.113092527622e-01 
5.155070148633e+01 3.109543498925e-01 
5.166613643079e+01 3.106048706186e-01 
5.178041702334e+01 3.102607066813e-01 
5.189355480987e+01 3.099217526661e-01 
5.200556122037e+01 3.095879059266e-01 
5.211644756527e+01 3.092590665056e-01 
5.222622504532e+01 3.089351370208e-01 
5.233490474913e+01 3.086160225902e-01 
5.244249765745e+01 3.083016307411e-01 
5.254901463690e+01 3.079918713531e-01 
5.265446644619e+01 3.076866565679e-01 
5.275886374073e+01 3.073859007067e-01 
5.286221706172e+01 3.070895202351e-01 
5.296453684737e+01 3.067974336665e-01 
5.306583343487e+01 3.065095614958e-01 
5.316611705806e+01 3.062258261469e-01 
5.326539784491e+01 3.059461519232e-01 
5.336368582425e+01 3.056704649341e-01 
5.346099092754e+01 3.053986930377e-01 
5.355732297761e+01 3.051307658222e-01 
5.365269170411e+01 3.048666145138e-01 
5.374710674534e+01 3.046061719255e-01 
5.384057763677e+01 3.043493724444e-01 
5.393311381755e+01 3.040961519697e-01 
5.402472463681e+01 3.038464478547e-01 
5.411541934658e+01 3.036001988855e-01 
5.420520710821e+01 3.033573452255e-01 
5.429409699415e+01 3.031178283730e-01 
5.438209798078e+01 3.028815911454e-01 
5.446921895934e+01 3.026485776145e-01 
5.455546872853e+01 3.024187330940e-01 
5.464085599656e+01 3.021920041009e-01 
5.472538939167e+01 3.019683382974e-01 
5.480907745498e+01 3.017476844799e-01 
5.489192863764e+01 3.015299925575e-01 
5.497395130722e+01 3.013152135079e-01 
5.505515375367e+01 3.011032993341e-01 
5.513554417759e+01 3.008942030704e-01 
5.521513069649e+01 3.006878787400e-01 
5.529392135081e+01 3.004842813158e-01 
5.537192409658e+01 3.002833667160e-01 
5.544914681159e+01 3.000850917654e-01 
5.552559730137e+01 2.998894141588e-01 
5.560128328727e+01 2.996962924703e-01 
5.567621241264e+01 2.995056861171e-01 
5.575039224878e+01 2.993175553251e-01 
5.582383028748e+01 2.991318611281e-01 
5.589653394258e+01 2.989485653463e-01 
5.596851056048e+01 2.987676305412e-01 
5.603976741252e+01 2.985890200186e-01 
5.611031169656e+01 2.984126978072e-01 
5.618015053832e+01 2.982386286395e-01 
5.624929098850e+01 2.980667779433e-01 
5.631774003304e+01 2.978971118012e-01 
5.638550459011e+01 2.977295969438e-01 
5.645259150240e+01 2.975642007539e-01 
5.651900754321e+01 2.974008912386e-01 
5.658475942665e+01 2.972396369904e-01 
5.664985379100e+01 2.970804072156e-01 
5.671429720923e+01 2.969231716958e-01 
5.677809619459e+01 2.967679007624e-01 
5.684125718858e+01 2.966145653143e-01 
5.690378657124e+01 2.964631367814e-01 
5.696569066236e+01 2.963135871109e-01 
5.702697571377e+01 2.961658887753e-01 
5.708764791523e+01 2.960200147479e-01 
5.714771339552e+01 2.958759384900e-01 
5.720717821929e+01 2.957336339492e-01 
5.726604839278e+01 2.955930755356e-01 
5.732432986497e+01 2.954542381108e-01 
5.738202852430e+01 2.953170969863e-01 
5.743915019538e+01 2.951816279232e-01 
5.749570064921e+01 2.950478070990e-01 
5.755168559972e+01 2.949156111084e-01 
5.760711070058e+01 2.947850169627e-01 
5.766198155070e+01 2.946560020690e-01 
5.771630369100e+01 2.945285442311e-01 
5.777008260993e+01 2.944026216285e-01 
5.782332374010e+01 2.942782128181e-01 
5.787603245940e+01 2.941552967245e-01 
5.792821409206e+01 2.940338526308e-01 
5.797987390975e+01 2.939138601699e-01 
5.803101712813e+01 2.937952993267e-01 
5.808164891248e+01 2.936781504179e-01 
5.813177437854e+01 2.935623940856e-01 
5.818139858949e+01 2.934480112975e-01 
5.823052656071e+01 2.933349833310e-01 
5.827916325255e+01 2.932232917846e-01 
5.832731357546e+01 2.931129185601e-01 
5.837498239560e+01 2.930038458458e-01 
5.842217453118e+01 2.928960561190e-01 
5.846889474458e+01 2.927895321598e-01 
5.851514775231e+01 2.926842570233e-01 
5.856093823042e+01 2.925802140231e-01 
5.860627080637e+01 2.924773867454e-01 
5.865115005556e+01 2.923757590524e-01 
5.869558051131e+01 2.922753150555e-01 
5.873956666562e+01 2.921760391097e-01 
5.878311295665e+01 2.920779158380e-01 
5.882622378324e+01 2.919809300944e-01 
5.886890350107e+01 2.918850669694e-01 
5.891115642376e+01 2.917903117836e-01 
5.895298681899e+01 2.916966500928e-01 
5.899439890965e+01 2.916040676822e-01 
5.903539687898e+01 2.915125505515e-01 
5.907598486707e+01 2.914220849192e-01 
5.911616697606e+01 2.913326572084e-01 
5.915594726203e+01 2.912442540611e-01 
5.919532974488e+01 2.911568623138e-01 
5.923431840449e+01 2.910704690028e-01 
5.927291717716e+01 2.909850613695e-01 
5.931112996087e+01 2.909006268455e-01 
5.934896061606e+01 2.908171530489e-01 
5.938641296640e+01 2.907346277793e-01 
5.942349079505e+01 2.906530390238e-01 
5.946019784545e+01 2.905723749528e-01 
5.949653782661e+01 2.904926239059e-01 
5.953251440928e+01 2.904137743980e-01 
5.956813122229e+01 2.903358151246e-01 
5.960339186677e+01 2.902587349292e-01 
5.963829990772e+01 2.901825228187e-01 
5.967285886591e+01 2.901071679797e-01 
5.970707223208e+01 2.900326597449e-01 
5.974094346756e+01 2.899589875902e-01 
5.977447599142e+01 2.898861411602e-01 
5.980767319038e+01 2.898141102451e-01 
5.984053841926e+01 2.897428847779e-01 
5.987307499282e+01 2.896724548497e-01 
5.990528619992e+01 2.896028106780e-01 
5.993717529504e+01 2.895339426228e-01 
5.996874549910e+01 2.894658411834e-01 
6.000000000000e+01 2.893984969554e-01 
