VARIABLES = "X","Y","Z",VELOCITY1_X,VELOCITY1_Y,VELOCITY1_Z
ZONE T="0.000000000000e+00s", 
9.890000000000e+02 0.000000000000e+00 5.000000000000e-01 0.000000000000e+00 0.000000000000e+00 0.000000000000e+00
9.900000000000e+02 0.000000000000e+00 5.000000000000e-01 0.000000000000e+00 0.000000000000e+00 0.000000000000e+00
9.890000000000e+02 0.000000000000e+00 1.500000000000e+00 0.000000000000e+00 0.000000000000e+00 0.000000000000e+00
9.900000000000e+02 0.000000000000e+00 1.500000000000e+00 0.000000000000e+00 0.000000000000e+00 0.000000000000e+00
9.890000000000e+02 0.000000000000e+00 2.500000000000e+00 0.000000000000e+00 0.000000000000e+00 0.000000000000e+00
9.900000000000e+02 0.000000000000e+00 2.500000000000e+00 0.000000000000e+00 0.000000000000e+00 0.000000000000e+00
9.890000000000e+02 0.000000000000e+00 3.500000000000e+00 0.000000000000e+00 0.000000000000e+00 0.000000000000e+00
9.900000000000e+02 0.000000000000e+00 3.500000000000e+00 0.000000000000e+00 0.000000000000e+00 0.000000000000e+00
9.890000000000e+02 0.000000000000e+00 4.500000000000e+00 0.000000000000e+00 0.000000000000e+00 0.000000000000e+00
9.900000000000e+02 0.000000000000e+00 4.500000000000e+00 0.000000000000e+00 0.000000000000e+00 0.000000000000e+00
9.890000000000e+02 0.000000000000e+00 5.500000000000e+00 0.000000000000e+00 0.000000000000e+00 0.000000000000e+00
9.900000000000e+02 0.000000000000e+00 5.500000000000e+00 0.000000000000e+00 0.000000000000e+00 0.000000000000e+00
9.890000000000e+02 0.000000000000e+00 6.500000000000e+00 0.000000000000e+00 0.000000000000e+00 0.000000000000e+00
9.900000000000e+02 0.000000000000e+00 6.500000000000e+00 0.000000000000e+00 0.000000000000e+00 0.000000000000e+00
9.890000000000e+02 0.000000000000e+00 7.500000000000e+00 0.000000000000e+00 0.000000000000e+00 0.000000000000e+00
9.900000000000e+02 0.000000000000e+00 7.500000000000e+00 0.000000000000e+00 0.000000000000e+00 0.000000000000e+00
9.890000000000e+02 0.000000000000e+00 8.500000000000e+00 0.000000000000e+00 0.000000000000e+00 0.000000000000e+00
9.900000000000e+02 0.000000000000e+00 8.500000000000e+00 0.000000000000e+00 0.000000000000e+00 0.000000000000e+00
9.890000000000e+02 0.000000000000e+00 9.500000000000e+00 0.000000000000e+00 0.000000000000e+00 0.000000000000e+00
9.900000000000e+02 0.000000000000e+00 9.500000000000e+00 0.000000000000e+00 0.000000000000e+00 0.000000000000e+00
9.890000000000e+02 0.000000000000e+00 1.050000000000e+01 0.000000000000e+00 0.000000000000e+00 0.000000000000e+00
9.900000000000e+02 0.000000000000e+00 1.050000000000e+01 0.000000000000e+00 0.000000000000e+00 0.000000000000e+00
9.890000000000e+02 0.000000000000e+00 1.150000000000e+01 0.000000000000e+00 0.000000000000e+00 0.000000000000e+00
9.900000000000e+02 0.000000000000e+00 1.150000000000e+01 0.000000000000e+00 0.000000000000e+00 0.000000000000e+00
9.890000000000e+02 0.000000000000e+00 1.250000000000e+01 0.000000000000e+00 0.000000000000e+00 0.000000000000e+00
9.900000000000e+02 0.000000000000e+00 1.250000000000e+01 0.000000000000e+00 0.000000000000e+00 0.000000000000e+00
9.890000000000e+02 0.000000000000e+00 1.350000000000e+01 0.000000000000e+00 0.000000000000e+00 0.000000000000e+00
9.900000000000e+02 0.000000000000e+00 1.350000000000e+01 0.000000000000e+00 0.000000000000e+00 0.000000000000e+00
9.890000000000e+02 0.000000000000e+00 1.450000000000e+01 0.000000000000e+00 0.000000000000e+00 0.000000000000e+00
9.900000000000e+02 0.000000000000e+00 1.450000000000e+01 0.000000000000e+00 0.000000000000e+00 0.000000000000e+00
9.890000000000e+02 0.000000000000e+00 1.550000000000e+01 0.000000000000e+00 0.000000000000e+00 0.000000000000e+00
9.900000000000e+02 0.000000000000e+00 1.550000000000e+01 0.000000000000e+00 0.000000000000e+00 0.000000000000e+00
9.890000000000e+02 0.000000000000e+00 1.650000000000e+01 0.000000000000e+00 0.000000000000e+00 0.000000000000e+00
9.900000000000e+02 0.000000000000e+00 1.650000000000e+01 0.000000000000e+00 0.000000000000e+00 0.000000000000e+00
9.890000000000e+02 0.000000000000e+00 1.750000000000e+01 0.000000000000e+00 0.000000000000e+00 0.000000000000e+00
9.900000000000e+02 0.000000000000e+00 1.750000000000e+01 0.000000000000e+00 0.000000000000e+00 0.000000000000e+00
9.890000000000e+02 0.000000000000e+00 1.850000000000e+01 0.000000000000e+00 0.000000000000e+00 0.000000000000e+00
9.900000000000e+02 0.000000000000e+00 1.850000000000e+01 0.000000000000e+00 0.000000000000e+00 0.000000000000e+00
9.890000000000e+02 0.000000000000e+00 1.950000000000e+01 0.000000000000e+00 0.000000000000e+00 0.000000000000e+00
9.900000000000e+02 0.000000000000e+00 1.950000000000e+01 0.000000000000e+00 0.000000000000e+00 0.000000000000e+00
9.890000000000e+02 0.000000000000e+00 2.050000000000e+01 0.000000000000e+00 0.000000000000e+00 0.000000000000e+00
9.900000000000e+02 0.000000000000e+00 2.050000000000e+01 0.000000000000e+00 0.000000000000e+00 0.000000000000e+00
9.890000000000e+02 0.000000000000e+00 2.150000000000e+01 0.000000000000e+00 0.000000000000e+00 0.000000000000e+00
9.900000000000e+02 0.000000000000e+00 2.150000000000e+01 0.000000000000e+00 0.000000000000e+00 0.000000000000e+00
9.890000000000e+02 0.000000000000e+00 2.250000000000e+01 0.000000000000e+00 0.000000000000e+00 0.000000000000e+00
9.900000000000e+02 0.000000000000e+00 2.250000000000e+01 0.000000000000e+00 0.000000000000e+00 0.000000000000e+00
9.890000000000e+02 0.000000000000e+00 2.350000000000e+01 0.000000000000e+00 0.000000000000e+00 0.000000000000e+00
9.900000000000e+02 0.000000000000e+00 2.350000000000e+01 0.000000000000e+00 0.000000000000e+00 0.000000000000e+00
9.890000000000e+02 0.000000000000e+00 2.450000000000e+01 0.000000000000e+00 0.000000000000e+00 0.000000000000e+00
9.900000000000e+02 0.000000000000e+00 2.450000000000e+01 0.000000000000e+00 0.000000000000e+00 0.000000000000e+00
9.890000000000e+02 0.000000000000e+00 2.550000000000e+01 0.000000000000e+00 0.000000000000e+00 0.000000000000e+00
9.900000000000e+02 0.000000000000e+00 2.550000000000e+01 0.000000000000e+00 0.000000000000e+00 0.000000000000e+00
9.890000000000e+02 0.000000000000e+00 2.650000000000e+01 0.000000000000e+00 0.000000000000e+00 0.000000000000e+00
9.900000000000e+02 0.000000000000e+00 2.650000000000e+01 0.000000000000e+00 0.000000000000e+00 0.000000000000e+00
9.890000000000e+02 0.000000000000e+00 2.750000000000e+01 0.000000000000e+00 0.000000000000e+00 0.000000000000e+00
9.900000000000e+02 0.000000000000e+00 2.750000000000e+01 0.000000000000e+00 0.000000000000e+00 0.000000000000e+00
9.890000000000e+02 0.000000000000e+00 2.850000000000e+01 0.000000000000e+00 0.000000000000e+00 0.000000000000e+00
9.900000000000e+02 0.000000000000e+00 2.850000000000e+01 0.000000000000e+00 0.000000000000e+00 0.000000000000e+00
9.890000000000e+02 0.000000000000e+00 2.950000000000e+01 0.000000000000e+00 0.000000000000e+00 0.000000000000e+00
9.900000000000e+02 0.000000000000e+00 2.950000000000e+01 0.000000000000e+00 0.000000000000e+00 0.000000000000e+00
VARIABLES = "X","Y","Z",VELOCITY1_X,VELOCITY1_Y,VELOCITY1_Z
ZONE T="1.797693134862e+308s", 
9.890000000000e+02 0.000000000000e+00 5.000000000000e-01 1.093697283180e-08 -4.639974806056e-13 0.000000000000e+00
9.900000000000e+02 0.000000000000e+00 5.000000000000e-01 1.093782554133e-08 -4.215830840137e-13 0.000000000000e+00
9.890000000000e+02 0.000000000000e+00 1.500000000000e+00 4.450574490176e-08 -2.816279215922e-12 0.000000000000e+00
9.900000000000e+02 0.000000000000e+00 1.500000000000e+00 4.450921506277e-08 -2.558841239252e-12 0.000000000000e+00
9.890000000000e+02 0.000000000000e+00 2.500000000000e+00 3.911032921385e-09 -4.870639819260e-12 0.000000000000e+00
9.900000000000e+02 0.000000000000e+00 2.500000000000e+00 3.911337961482e-09 -4.425395259533e-12 0.000000000000e+00
9.890000000000e+02 0.000000000000e+00 3.500000000000e+00 4.533520902550e-08 -6.964244333334e-12 0.000000000000e+00
9.900000000000e+02 0.000000000000e+00 3.500000000000e+00 4.533875103136e-08 -6.327632879394e-12 0.000000000000e+00
9.890000000000e+02 0.000000000000e+00 4.500000000000e+00 5.682624587472e-08 -1.130845215700e-11 0.000000000000e+00
9.900000000000e+02 0.000000000000e+00 4.500000000000e+00 5.683068675511e-08 -1.027475100710e-11 0.000000000000e+00
9.890000000000e+02 0.000000000000e+00 5.500000000000e+00 3.126561082238e-09 -1.385860997740e-11 0.000000000000e+00
9.900000000000e+02 0.000000000000e+00 5.500000000000e+00 3.126805673993e-09 -1.259180496830e-11 0.000000000000e+00
9.890000000000e+02 0.000000000000e+00 6.500000000000e+00 3.159329944882e-07 -2.752304747995e-11 0.000000000000e+00
9.900000000000e+02 0.000000000000e+00 6.500000000000e+00 3.159578608183e-07 -2.500748949862e-11 0.000000000000e+00
9.890000000000e+02 0.000000000000e+00 7.500000000000e+00 2.879930327292e-09 -4.117869734479e-11 0.000000000000e+00
9.900000000000e+02 0.000000000000e+00 7.500000000000e+00 2.880157607883e-09 -3.741518836985e-11 0.000000000000e+00
9.890000000000e+02 0.000000000000e+00 8.500000000000e+00 1.460219198614e-08 -4.194458161985e-11 0.000000000000e+00
9.900000000000e+02 0.000000000000e+00 8.500000000000e+00 1.460336809543e-08 -3.811113044582e-11 0.000000000000e+00
9.890000000000e+02 0.000000000000e+00 9.500000000000e+00 5.617645818378e-07 -6.730344559371e-11 0.000000000000e+00
9.900000000000e+02 0.000000000000e+00 9.500000000000e+00 5.618100084948e-07 -6.115444137557e-11 0.000000000000e+00
9.890000000000e+02 0.000000000000e+00 1.050000000000e+01 4.798341129415e-07 -1.131402268822e-10 0.000000000000e+00
9.900000000000e+02 0.000000000000e+00 1.050000000000e+01 4.798729229510e-07 -1.028058296795e-10 0.000000000000e+00
9.890000000000e+02 0.000000000000e+00 1.150000000000e+01 6.762938945401e-08 -1.372418832369e-10 0.000000000000e+00
9.900000000000e+02 0.000000000000e+00 1.150000000000e+01 6.763486363732e-08 -1.247067529366e-10 0.000000000000e+00
9.890000000000e+02 0.000000000000e+00 1.250000000000e+01 1.678356011881e-08 -1.409716367030e-10 0.000000000000e+00
9.900000000000e+02 0.000000000000e+00 1.250000000000e+01 1.678492517984e-08 -1.280959847735e-10 0.000000000000e+00
9.890000000000e+02 0.000000000000e+00 1.350000000000e+01 8.032684455249e-10 -1.417604173701e-10 0.000000000000e+00
9.900000000000e+02 0.000000000000e+00 1.350000000000e+01 8.033368932578e-10 -1.288127958547e-10 0.000000000000e+00
9.890000000000e+02 0.000000000000e+00 1.450000000000e+01 6.116462509133e-08 -1.453682232835e-10 0.000000000000e+00
9.900000000000e+02 0.000000000000e+00 1.450000000000e+01 6.117117673804e-08 -1.320945899792e-10 0.000000000000e+00
9.890000000000e+02 0.000000000000e+00 1.550000000000e+01 8.932931478867e-08 -1.541576373187e-10 0.000000000000e+00
9.900000000000e+02 0.000000000000e+00 1.550000000000e+01 8.933891367389e-08 -1.400898420122e-10 0.000000000000e+00
9.890000000000e+02 0.000000000000e+00 1.650000000000e+01 2.602795386884e-08 -1.609125136512e-10 0.000000000000e+00
9.900000000000e+02 0.000000000000e+00 1.650000000000e+01 2.603076027761e-08 -1.462344382494e-10 0.000000000000e+00
9.890000000000e+02 0.000000000000e+00 1.750000000000e+01 1.362972404268e-09 -1.625327169293e-10 0.000000000000e+00
9.900000000000e+02 0.000000000000e+00 1.750000000000e+01 1.363123857671e-09 -1.477083530778e-10 0.000000000000e+00
9.890000000000e+02 0.000000000000e+00 1.850000000000e+01 2.154798630581e-08 -1.641442170757e-10 0.000000000000e+00
9.900000000000e+02 0.000000000000e+00 1.850000000000e+01 2.155077864611e-08 -1.491758554637e-10 0.000000000000e+00
9.890000000000e+02 0.000000000000e+00 1.950000000000e+01 1.020243100270e-06 -2.381486365209e-10 0.000000000000e+00
9.900000000000e+02 0.000000000000e+00 1.950000000000e+01 1.020376546725e-06 -2.165718552808e-10 0.000000000000e+00
9.890000000000e+02 0.000000000000e+00 2.050000000000e+01 1.900361760780e-10 -3.106791797973e-10 0.000000000000e+00
9.900000000000e+02 0.000000000000e+00 2.050000000000e+01 1.900758562857e-10 -2.826261283900e-10 0.000000000000e+00
9.890000000000e+02 0.000000000000e+00 2.150000000000e+01 1.738518409852e-08 -3.176732901827e-10 0.000000000000e+00
9.900000000000e+02 0.000000000000e+00 2.150000000000e+01 1.739810598739e-08 -2.891067989318e-10 0.000000000000e+00
9.890000000000e+02 0.000000000000e+00 2.250000000000e+01 1.702935870415e-07 -3.930982519754e-10 0.000000000000e+00
9.900000000000e+02 0.000000000000e+00 2.250000000000e+01 1.704214688603e-07 -3.590094153747e-10 0.000000000000e+00
9.890000000000e+02 0.000000000000e+00 2.350000000000e+01 1.807192381558e-09 -4.625079186957e-10 0.000000000000e+00
9.900000000000e+02 0.000000000000e+00 2.350000000000e+01 1.808641476453e-09 -4.233511989969e-10 0.000000000000e+00
9.890000000000e+02 0.000000000000e+00 2.450000000000e+01 2.656489381289e-08 -4.800048098608e-10 0.000000000000e+00
9.900000000000e+02 0.000000000000e+00 2.450000000000e+01 2.659620928030e-08 -4.399677287037e-10 0.000000000000e+00
9.890000000000e+02 0.000000000000e+00 2.550000000000e+01 3.921936695737e-09 -4.993066216374e-10 0.000000000000e+00
9.900000000000e+02 0.000000000000e+00 2.550000000000e+01 3.926788891822e-09 -4.583278081299e-10 0.000000000000e+00
9.890000000000e+02 0.000000000000e+00 2.650000000000e+01 2.883607106155e-08 -5.241558973201e-10 0.000000000000e+00
9.900000000000e+02 0.000000000000e+00 2.650000000000e+01 2.887840339069e-08 -4.822574144908e-10 0.000000000000e+00
9.890000000000e+02 0.000000000000e+00 2.750000000000e+01 1.641857659679e-06 -1.823008677190e-09 0.000000000000e+00
9.900000000000e+02 0.000000000000e+00 2.750000000000e+01 1.644328165386e-06 -1.735593514978e-09 0.000000000000e+00
9.890000000000e+02 0.000000000000e+00 2.850000000000e+01 1.358035004090e-08 -3.114435066099e-09 0.000000000000e+00
9.900000000000e+02 0.000000000000e+00 2.850000000000e+01 1.360295289045e-08 -2.982590169942e-09 0.000000000000e+00
9.890000000000e+02 0.000000000000e+00 2.950000000000e+01 9.597763246271e-07 -4.449366917344e-09 0.000000000000e+00
9.900000000000e+02 0.000000000000e+00 2.950000000000e+01 9.625296007420e-07 -4.383586363246e-09 0.000000000000e+00
