VARIABLES = "Time","Value"
ZONE T=obs_01000
0.000000000000e+00 0.000000000000e+00
1.797693134862e+308 5.766726267588e-06
