 TITLE = "Profiles along polylines"
 VARIABLES = "DIST" "HEAD" "VELOCITY_X1" "VELOCITY_Y1" "VELOCITY_Z1" 
 ZONE T="TIME=0.000000000000e+00"
0.000000000000e+00 3.000000000000e+01 0.000000000000e+00 0.000000000000e+00 0.000000000000e+00 
1.000000000000e+00 3.000000000000e+01 0.000000000000e+00 0.000000000000e+00 0.000000000000e+00 
2.000000000000e+00 3.000000000000e+01 0.000000000000e+00 0.000000000000e+00 0.000000000000e+00 
3.000000000000e+00 3.000000000000e+01 0.000000000000e+00 0.000000000000e+00 0.000000000000e+00 
4.000000000000e+00 3.000000000000e+01 0.000000000000e+00 0.000000000000e+00 0.000000000000e+00 
5.000000000000e+00 3.000000000000e+01 0.000000000000e+00 0.000000000000e+00 0.000000000000e+00 
6.000000000000e+00 3.000000000000e+01 0.000000000000e+00 0.000000000000e+00 0.000000000000e+00 
7.000000000000e+00 3.000000000000e+01 0.000000000000e+00 0.000000000000e+00 0.000000000000e+00 
8.000000000000e+00 3.000000000000e+01 0.000000000000e+00 0.000000000000e+00 0.000000000000e+00 
9.000000000000e+00 3.000000000000e+01 0.000000000000e+00 0.000000000000e+00 0.000000000000e+00 
1.000000000000e+01 3.000000000000e+01 0.000000000000e+00 0.000000000000e+00 0.000000000000e+00 
1.100000000000e+01 3.000000000000e+01 0.000000000000e+00 0.000000000000e+00 0.000000000000e+00 
1.200000000000e+01 3.000000000000e+01 0.000000000000e+00 0.000000000000e+00 0.000000000000e+00 
1.300000000000e+01 3.000000000000e+01 0.000000000000e+00 0.000000000000e+00 0.000000000000e+00 
1.400000000000e+01 3.000000000000e+01 0.000000000000e+00 0.000000000000e+00 0.000000000000e+00 
1.500000000000e+01 3.000000000000e+01 0.000000000000e+00 0.000000000000e+00 0.000000000000e+00 
1.600000000000e+01 3.000000000000e+01 0.000000000000e+00 0.000000000000e+00 0.000000000000e+00 
1.700000000000e+01 3.000000000000e+01 0.000000000000e+00 0.000000000000e+00 0.000000000000e+00 
1.800000000000e+01 3.000000000000e+01 0.000000000000e+00 0.000000000000e+00 0.000000000000e+00 
1.900000000000e+01 3.000000000000e+01 0.000000000000e+00 0.000000000000e+00 0.000000000000e+00 
2.000000000000e+01 3.000000000000e+01 0.000000000000e+00 0.000000000000e+00 0.000000000000e+00 
2.100000000000e+01 3.000000000000e+01 0.000000000000e+00 0.000000000000e+00 0.000000000000e+00 
2.200000000000e+01 3.000000000000e+01 0.000000000000e+00 0.000000000000e+00 0.000000000000e+00 
2.300000000000e+01 3.000000000000e+01 0.000000000000e+00 0.000000000000e+00 0.000000000000e+00 
2.400000000000e+01 3.000000000000e+01 0.000000000000e+00 0.000000000000e+00 0.000000000000e+00 
2.500000000000e+01 3.000000000000e+01 0.000000000000e+00 0.000000000000e+00 0.000000000000e+00 
2.600000000000e+01 3.000000000000e+01 0.000000000000e+00 0.000000000000e+00 0.000000000000e+00 
2.700000000000e+01 3.000000000000e+01 0.000000000000e+00 0.000000000000e+00 0.000000000000e+00 
2.800000000000e+01 3.000000000000e+01 0.000000000000e+00 0.000000000000e+00 0.000000000000e+00 
2.900000000000e+01 3.000000000000e+01 0.000000000000e+00 0.000000000000e+00 0.000000000000e+00 
3.000000000000e+01 3.000000000000e+01 0.000000000000e+00 0.000000000000e+00 0.000000000000e+00 
 TITLE = "Profiles along polylines"
 VARIABLES = "DIST" "HEAD" "VELOCITY_X1" "VELOCITY_Y1" "VELOCITY_Z1" 
 ZONE T="TIME=1.797693134862e+308"
0.000000000000e+00 3.009715262976e+01 1.055369735513e-08 -3.561024130393e-12 0.000000000000e+00 
1.000000000000e+00 3.009715294987e+01 2.674986673221e-08 -1.258717291846e-11 0.000000000000e+00 
2.000000000000e+00 3.009715342732e+01 2.336003846184e-08 -2.949594073713e-11 0.000000000000e+00 
3.000000000000e+00 3.009716282377e+01 2.375925753644e-08 -4.540251954986e-11 0.000000000000e+00 
4.000000000000e+00 3.009716398254e+01 4.928826484609e-08 -7.007367846871e-11 0.000000000000e+00 
5.000000000000e+00 3.009716548311e+01 2.892455039068e-08 -9.649144369334e-11 0.000000000000e+00 
6.000000000000e+00 3.009719890424e+01 1.539061713508e-07 -1.584026158703e-10 0.000000000000e+00 
7.000000000000e+00 3.009719955980e+01 1.537871902487e-07 -2.626458432124e-10 0.000000000000e+00 
8.000000000000e+00 3.009730708619e+01 8.429958161493e-09 -3.176312354652e-10 0.000000000000e+00 
9.000000000000e+00 3.009732870733e+01 2.778531043973e-07 -4.157075815246e-10 0.000000000000e+00 
1.000000000000e+01 3.009732960338e+01 5.021281654261e-07 -6.829442053855e-10 0.000000000000e+00 
1.100000000000e+01 3.009733135898e+01 2.639185259923e-07 -9.454266785585e-10 0.000000000000e+00 
1.200000000000e+01 3.009734645081e+01 4.069437964846e-08 -1.049829465820e-09 0.000000000000e+00 
1.300000000000e+01 3.009740891854e+01 8.479548813793e-09 -1.066718065220e-09 0.000000000000e+00 
1.400000000000e+01 3.009872458561e+01 2.967159629736e-08 -1.081022603949e-09 0.000000000000e+00 
1.500000000000e+01 3.009874248453e+01 7.204666752650e-08 -1.120069693830e-09 0.000000000000e+00 
1.600000000000e+01 3.009875536360e+01 5.522330083909e-08 -1.168965272088e-09 0.000000000000e+00 
1.700000000000e+01 3.009880120960e+01 1.311348563861e-08 -1.195251362881e-09 0.000000000000e+00 
1.800000000000e+01 3.009968567353e+01 1.091867715473e-08 -1.204800582848e-09 0.000000000000e+00 
1.900000000000e+01 3.009974258534e+01 4.960947653087e-07 -1.414149270871e-09 0.000000000000e+00 
2.000000000000e+01 3.009974419558e+01 4.859214788240e-07 -1.819685168285e-09 0.000000000000e+00 
2.100000000000e+01 3.011071478904e+01 7.765931781945e-09 -2.025877280765e-09 0.000000000000e+00 
2.200000000000e+01 3.011085117203e+01 8.276389293342e-08 -2.090439903534e-09 0.000000000000e+00 
2.300000000000e+01 3.011086592654e+01 7.588747814846e-08 -2.203657143169e-09 0.000000000000e+00 
2.400000000000e+01 3.011233016026e+01 1.234223849606e-08 -2.267025999515e-09 0.000000000000e+00 
2.500000000000e+01 3.011243252643e+01 1.324793655300e-08 -2.286130345841e-09 0.000000000000e+00 
2.600000000000e+01 3.011313368465e+01 1.413287345795e-08 -2.306806257586e-09 0.000000000000e+00 
2.700000000000e+01 3.011323084825e+01 7.193853035501e-07 -2.867306880360e-09 0.000000000000e+00 
2.800000000000e+01 3.011323336754e+01 7.127976468961e-07 -3.961747591034e-09 0.000000000000e+00 
2.900000000000e+01 3.011363550832e+01 4.153109004797e-07 -4.824481663214e-09 0.000000000000e+00 
3.000000000000e+01 3.011364205660e+01 8.189379629918e-07 -5.142503831092e-09 0.000000000000e+00 
