VARIABLES = "X","Y","Z",VELOCITY1_X,VELOCITY1_Y,VELOCITY1_Z
ZONE T="0.000000000000e+00s", 
9.990000000000e+02 0.000000000000e+00 5.000000000000e-01 0.000000000000e+00 0.000000000000e+00 0.000000000000e+00
9.990000000000e+02 0.000000000000e+00 1.500000000000e+00 0.000000000000e+00 0.000000000000e+00 0.000000000000e+00
9.990000000000e+02 0.000000000000e+00 2.500000000000e+00 0.000000000000e+00 0.000000000000e+00 0.000000000000e+00
9.990000000000e+02 0.000000000000e+00 3.500000000000e+00 0.000000000000e+00 0.000000000000e+00 0.000000000000e+00
9.990000000000e+02 0.000000000000e+00 4.500000000000e+00 0.000000000000e+00 0.000000000000e+00 0.000000000000e+00
9.990000000000e+02 0.000000000000e+00 5.500000000000e+00 0.000000000000e+00 0.000000000000e+00 0.000000000000e+00
9.990000000000e+02 0.000000000000e+00 6.500000000000e+00 0.000000000000e+00 0.000000000000e+00 0.000000000000e+00
9.990000000000e+02 0.000000000000e+00 7.500000000000e+00 0.000000000000e+00 0.000000000000e+00 0.000000000000e+00
9.990000000000e+02 0.000000000000e+00 8.500000000000e+00 0.000000000000e+00 0.000000000000e+00 0.000000000000e+00
9.990000000000e+02 0.000000000000e+00 9.500000000000e+00 0.000000000000e+00 0.000000000000e+00 0.000000000000e+00
9.990000000000e+02 0.000000000000e+00 1.050000000000e+01 0.000000000000e+00 0.000000000000e+00 0.000000000000e+00
9.990000000000e+02 0.000000000000e+00 1.150000000000e+01 0.000000000000e+00 0.000000000000e+00 0.000000000000e+00
9.990000000000e+02 0.000000000000e+00 1.250000000000e+01 0.000000000000e+00 0.000000000000e+00 0.000000000000e+00
9.990000000000e+02 0.000000000000e+00 1.350000000000e+01 0.000000000000e+00 0.000000000000e+00 0.000000000000e+00
9.990000000000e+02 0.000000000000e+00 1.450000000000e+01 0.000000000000e+00 0.000000000000e+00 0.000000000000e+00
9.990000000000e+02 0.000000000000e+00 1.550000000000e+01 0.000000000000e+00 0.000000000000e+00 0.000000000000e+00
9.990000000000e+02 0.000000000000e+00 1.650000000000e+01 0.000000000000e+00 0.000000000000e+00 0.000000000000e+00
9.990000000000e+02 0.000000000000e+00 1.750000000000e+01 0.000000000000e+00 0.000000000000e+00 0.000000000000e+00
9.990000000000e+02 0.000000000000e+00 1.850000000000e+01 0.000000000000e+00 0.000000000000e+00 0.000000000000e+00
9.990000000000e+02 0.000000000000e+00 1.950000000000e+01 0.000000000000e+00 0.000000000000e+00 0.000000000000e+00
9.990000000000e+02 0.000000000000e+00 2.050000000000e+01 0.000000000000e+00 0.000000000000e+00 0.000000000000e+00
9.990000000000e+02 0.000000000000e+00 2.150000000000e+01 0.000000000000e+00 0.000000000000e+00 0.000000000000e+00
9.990000000000e+02 0.000000000000e+00 2.250000000000e+01 0.000000000000e+00 0.000000000000e+00 0.000000000000e+00
9.990000000000e+02 0.000000000000e+00 2.350000000000e+01 0.000000000000e+00 0.000000000000e+00 0.000000000000e+00
9.990000000000e+02 0.000000000000e+00 2.450000000000e+01 0.000000000000e+00 0.000000000000e+00 0.000000000000e+00
9.990000000000e+02 0.000000000000e+00 2.550000000000e+01 0.000000000000e+00 0.000000000000e+00 0.000000000000e+00
9.990000000000e+02 0.000000000000e+00 2.650000000000e+01 0.000000000000e+00 0.000000000000e+00 0.000000000000e+00
9.990000000000e+02 0.000000000000e+00 2.750000000000e+01 0.000000000000e+00 0.000000000000e+00 0.000000000000e+00
9.990000000000e+02 0.000000000000e+00 2.850000000000e+01 0.000000000000e+00 0.000000000000e+00 0.000000000000e+00
9.990000000000e+02 0.000000000000e+00 2.950000000000e+01 0.000000000000e+00 0.000000000000e+00 0.000000000000e+00
VARIABLES = "X","Y","Z",VELOCITY1_X,VELOCITY1_Y,VELOCITY1_Z
ZONE T="1.797693134862e+308s", 
9.990000000000e+02 0.000000000000e+00 5.000000000000e-01 1.094166772880e-08 -3.791956411613e-14 0.000000000000e+00
9.990000000000e+02 0.000000000000e+00 1.500000000000e+00 4.452485114276e-08 -2.301499435546e-13 0.000000000000e+00
9.990000000000e+02 0.000000000000e+00 2.500000000000e+00 3.912712430694e-09 -3.980325236349e-13 0.000000000000e+00
9.990000000000e+02 0.000000000000e+00 3.500000000000e+00 4.535471093123e-08 -5.691355417591e-13 0.000000000000e+00
9.990000000000e+02 0.000000000000e+00 4.500000000000e+00 5.685069690780e-08 -9.241611605994e-13 0.000000000000e+00
9.990000000000e+02 0.000000000000e+00 5.500000000000e+00 3.127907785133e-09 -1.132575290365e-12 0.000000000000e+00
9.990000000000e+02 0.000000000000e+00 6.500000000000e+00 3.160699101872e-07 -2.249423521288e-12 0.000000000000e+00
9.990000000000e+02 0.000000000000e+00 7.500000000000e+00 2.881181773183e-09 -3.365603165241e-12 0.000000000000e+00
9.990000000000e+02 0.000000000000e+00 8.500000000000e+00 1.460866885343e-08 -3.428229321805e-12 0.000000000000e+00
9.990000000000e+02 0.000000000000e+00 9.500000000000e+00 5.620147553877e-07 -5.501972605917e-12 0.000000000000e+00
9.990000000000e+02 0.000000000000e+00 1.050000000000e+01 4.800478478888e-07 -9.250186486510e-12 0.000000000000e+00
9.990000000000e+02 0.000000000000e+00 1.150000000000e+01 6.765953713235e-08 -1.122113459634e-11 0.000000000000e+00
9.990000000000e+02 0.000000000000e+00 1.250000000000e+01 1.679107816055e-08 -1.152617591735e-11 0.000000000000e+00
9.990000000000e+02 0.000000000000e+00 1.350000000000e+01 8.036455807278e-10 -1.159071090230e-11 0.000000000000e+00
9.990000000000e+02 0.000000000000e+00 1.450000000000e+01 6.120078982377e-08 -1.188753946746e-11 0.000000000000e+00
9.990000000000e+02 0.000000000000e+00 1.550000000000e+01 8.938230169511e-08 -1.261067738019e-11 0.000000000000e+00
9.990000000000e+02 0.000000000000e+00 1.650000000000e+01 2.604344621955e-08 -1.316648393093e-11 0.000000000000e+00
9.990000000000e+02 0.000000000000e+00 1.750000000000e+01 1.363808838042e-09 -1.329985757523e-11 0.000000000000e+00
9.990000000000e+02 0.000000000000e+00 1.850000000000e+01 2.156343876995e-08 -1.343332737550e-11 0.000000000000e+00
9.990000000000e+02 0.000000000000e+00 1.950000000000e+01 1.020981674065e-06 -1.956501482528e-11 0.000000000000e+00
9.990000000000e+02 0.000000000000e+00 2.050000000000e+01 1.902600598115e-10 -2.557486921316e-11 0.000000000000e+00
9.990000000000e+02 0.000000000000e+00 2.150000000000e+01 1.745977341784e-08 -2.622307763982e-11 0.000000000000e+00
9.990000000000e+02 0.000000000000e+00 2.250000000000e+01 1.710322502178e-07 -3.322669524754e-11 0.000000000000e+00
9.990000000000e+02 0.000000000000e+00 2.350000000000e+01 1.815680758739e-09 -3.968558096022e-11 0.000000000000e+00
9.990000000000e+02 0.000000000000e+00 2.450000000000e+01 2.676052462375e-08 -4.171335818070e-11 0.000000000000e+00
9.990000000000e+02 0.000000000000e+00 2.550000000000e+01 3.952655037368e-09 -4.399762732433e-11 0.000000000000e+00
9.990000000000e+02 0.000000000000e+00 2.650000000000e+01 2.911755562401e-08 -4.753828653702e-11 0.000000000000e+00
9.990000000000e+02 0.000000000000e+00 2.750000000000e+01 1.658481486218e-06 -2.434570550076e-10 0.000000000000e+00
9.990000000000e+02 0.000000000000e+00 2.850000000000e+01 1.376144055409e-08 -4.486443170329e-10 0.000000000000e+00
9.990000000000e+02 0.000000000000e+00 2.950000000000e+01 9.962210741536e-07 -3.048812279617e-09 0.000000000000e+00
