VARIABLES = "X","Y","Z",VELOCITY1_X,VELOCITY1_Y,VELOCITY1_Z
ZONE T="0.000000000000e+00s", 
2.490000000000e+02 0.000000000000e+00 5.000000000000e-01 0.000000000000e+00 0.000000000000e+00 0.000000000000e+00
2.500000000000e+02 0.000000000000e+00 5.000000000000e-01 0.000000000000e+00 0.000000000000e+00 0.000000000000e+00
2.490000000000e+02 0.000000000000e+00 1.500000000000e+00 0.000000000000e+00 0.000000000000e+00 0.000000000000e+00
2.500000000000e+02 0.000000000000e+00 1.500000000000e+00 0.000000000000e+00 0.000000000000e+00 0.000000000000e+00
2.490000000000e+02 0.000000000000e+00 2.500000000000e+00 0.000000000000e+00 0.000000000000e+00 0.000000000000e+00
2.500000000000e+02 0.000000000000e+00 2.500000000000e+00 0.000000000000e+00 0.000000000000e+00 0.000000000000e+00
2.490000000000e+02 0.000000000000e+00 3.500000000000e+00 0.000000000000e+00 0.000000000000e+00 0.000000000000e+00
2.500000000000e+02 0.000000000000e+00 3.500000000000e+00 0.000000000000e+00 0.000000000000e+00 0.000000000000e+00
2.490000000000e+02 0.000000000000e+00 4.500000000000e+00 0.000000000000e+00 0.000000000000e+00 0.000000000000e+00
2.500000000000e+02 0.000000000000e+00 4.500000000000e+00 0.000000000000e+00 0.000000000000e+00 0.000000000000e+00
2.490000000000e+02 0.000000000000e+00 5.500000000000e+00 0.000000000000e+00 0.000000000000e+00 0.000000000000e+00
2.500000000000e+02 0.000000000000e+00 5.500000000000e+00 0.000000000000e+00 0.000000000000e+00 0.000000000000e+00
2.490000000000e+02 0.000000000000e+00 6.500000000000e+00 0.000000000000e+00 0.000000000000e+00 0.000000000000e+00
2.500000000000e+02 0.000000000000e+00 6.500000000000e+00 0.000000000000e+00 0.000000000000e+00 0.000000000000e+00
2.490000000000e+02 0.000000000000e+00 7.500000000000e+00 0.000000000000e+00 0.000000000000e+00 0.000000000000e+00
2.500000000000e+02 0.000000000000e+00 7.500000000000e+00 0.000000000000e+00 0.000000000000e+00 0.000000000000e+00
2.490000000000e+02 0.000000000000e+00 8.500000000000e+00 0.000000000000e+00 0.000000000000e+00 0.000000000000e+00
2.500000000000e+02 0.000000000000e+00 8.500000000000e+00 0.000000000000e+00 0.000000000000e+00 0.000000000000e+00
2.490000000000e+02 0.000000000000e+00 9.500000000000e+00 0.000000000000e+00 0.000000000000e+00 0.000000000000e+00
2.500000000000e+02 0.000000000000e+00 9.500000000000e+00 0.000000000000e+00 0.000000000000e+00 0.000000000000e+00
2.490000000000e+02 0.000000000000e+00 1.050000000000e+01 0.000000000000e+00 0.000000000000e+00 0.000000000000e+00
2.500000000000e+02 0.000000000000e+00 1.050000000000e+01 0.000000000000e+00 0.000000000000e+00 0.000000000000e+00
2.490000000000e+02 0.000000000000e+00 1.150000000000e+01 0.000000000000e+00 0.000000000000e+00 0.000000000000e+00
2.500000000000e+02 0.000000000000e+00 1.150000000000e+01 0.000000000000e+00 0.000000000000e+00 0.000000000000e+00
2.490000000000e+02 0.000000000000e+00 1.250000000000e+01 0.000000000000e+00 0.000000000000e+00 0.000000000000e+00
2.500000000000e+02 0.000000000000e+00 1.250000000000e+01 0.000000000000e+00 0.000000000000e+00 0.000000000000e+00
2.490000000000e+02 0.000000000000e+00 1.350000000000e+01 0.000000000000e+00 0.000000000000e+00 0.000000000000e+00
2.500000000000e+02 0.000000000000e+00 1.350000000000e+01 0.000000000000e+00 0.000000000000e+00 0.000000000000e+00
2.490000000000e+02 0.000000000000e+00 1.450000000000e+01 0.000000000000e+00 0.000000000000e+00 0.000000000000e+00
2.500000000000e+02 0.000000000000e+00 1.450000000000e+01 0.000000000000e+00 0.000000000000e+00 0.000000000000e+00
2.490000000000e+02 0.000000000000e+00 1.550000000000e+01 0.000000000000e+00 0.000000000000e+00 0.000000000000e+00
2.500000000000e+02 0.000000000000e+00 1.550000000000e+01 0.000000000000e+00 0.000000000000e+00 0.000000000000e+00
2.490000000000e+02 0.000000000000e+00 1.650000000000e+01 0.000000000000e+00 0.000000000000e+00 0.000000000000e+00
2.500000000000e+02 0.000000000000e+00 1.650000000000e+01 0.000000000000e+00 0.000000000000e+00 0.000000000000e+00
2.490000000000e+02 0.000000000000e+00 1.750000000000e+01 0.000000000000e+00 0.000000000000e+00 0.000000000000e+00
2.500000000000e+02 0.000000000000e+00 1.750000000000e+01 0.000000000000e+00 0.000000000000e+00 0.000000000000e+00
2.490000000000e+02 0.000000000000e+00 1.850000000000e+01 0.000000000000e+00 0.000000000000e+00 0.000000000000e+00
2.500000000000e+02 0.000000000000e+00 1.850000000000e+01 0.000000000000e+00 0.000000000000e+00 0.000000000000e+00
2.490000000000e+02 0.000000000000e+00 1.950000000000e+01 0.000000000000e+00 0.000000000000e+00 0.000000000000e+00
2.500000000000e+02 0.000000000000e+00 1.950000000000e+01 0.000000000000e+00 0.000000000000e+00 0.000000000000e+00
2.490000000000e+02 0.000000000000e+00 2.050000000000e+01 0.000000000000e+00 0.000000000000e+00 0.000000000000e+00
2.500000000000e+02 0.000000000000e+00 2.050000000000e+01 0.000000000000e+00 0.000000000000e+00 0.000000000000e+00
2.490000000000e+02 0.000000000000e+00 2.150000000000e+01 0.000000000000e+00 0.000000000000e+00 0.000000000000e+00
2.500000000000e+02 0.000000000000e+00 2.150000000000e+01 0.000000000000e+00 0.000000000000e+00 0.000000000000e+00
2.490000000000e+02 0.000000000000e+00 2.250000000000e+01 0.000000000000e+00 0.000000000000e+00 0.000000000000e+00
2.500000000000e+02 0.000000000000e+00 2.250000000000e+01 0.000000000000e+00 0.000000000000e+00 0.000000000000e+00
2.490000000000e+02 0.000000000000e+00 2.350000000000e+01 0.000000000000e+00 0.000000000000e+00 0.000000000000e+00
2.500000000000e+02 0.000000000000e+00 2.350000000000e+01 0.000000000000e+00 0.000000000000e+00 0.000000000000e+00
2.490000000000e+02 0.000000000000e+00 2.450000000000e+01 0.000000000000e+00 0.000000000000e+00 0.000000000000e+00
2.500000000000e+02 0.000000000000e+00 2.450000000000e+01 0.000000000000e+00 0.000000000000e+00 0.000000000000e+00
2.490000000000e+02 0.000000000000e+00 2.550000000000e+01 0.000000000000e+00 0.000000000000e+00 0.000000000000e+00
2.500000000000e+02 0.000000000000e+00 2.550000000000e+01 0.000000000000e+00 0.000000000000e+00 0.000000000000e+00
2.490000000000e+02 0.000000000000e+00 2.650000000000e+01 0.000000000000e+00 0.000000000000e+00 0.000000000000e+00
2.500000000000e+02 0.000000000000e+00 2.650000000000e+01 0.000000000000e+00 0.000000000000e+00 0.000000000000e+00
2.490000000000e+02 0.000000000000e+00 2.750000000000e+01 0.000000000000e+00 0.000000000000e+00 0.000000000000e+00
2.500000000000e+02 0.000000000000e+00 2.750000000000e+01 0.000000000000e+00 0.000000000000e+00 0.000000000000e+00
2.490000000000e+02 0.000000000000e+00 2.850000000000e+01 0.000000000000e+00 0.000000000000e+00 0.000000000000e+00
2.500000000000e+02 0.000000000000e+00 2.850000000000e+01 0.000000000000e+00 0.000000000000e+00 0.000000000000e+00
2.490000000000e+02 0.000000000000e+00 2.950000000000e+01 0.000000000000e+00 0.000000000000e+00 0.000000000000e+00
2.500000000000e+02 0.000000000000e+00 2.950000000000e+01 0.000000000000e+00 0.000000000000e+00 0.000000000000e+00
VARIABLES = "X","Y","Z",VELOCITY1_X,VELOCITY1_Y,VELOCITY1_Z
ZONE T="1.797693134862e+308s", 
2.490000000000e+02 0.000000000000e+00 5.000000000000e-01 3.067734001792e-09 -6.145925563884e-12 0.000000000000e+00
2.500000000000e+02 0.000000000000e+00 5.000000000000e-01 3.080025844788e-09 -6.145908885763e-12 0.000000000000e+00
2.490000000000e+02 0.000000000000e+00 1.500000000000e+00 1.248345690203e-08 -3.730125975509e-11 0.000000000000e+00
2.500000000000e+02 0.000000000000e+00 1.500000000000e+00 1.253347590364e-08 -3.730104827107e-11 0.000000000000e+00
2.490000000000e+02 0.000000000000e+00 2.500000000000e+00 1.096989537774e-09 -6.450808770428e-11 0.000000000000e+00
2.500000000000e+02 0.000000000000e+00 2.500000000000e+00 1.101384985582e-09 -6.450773628520e-11 0.000000000000e+00
2.490000000000e+02 0.000000000000e+00 3.500000000000e+00 1.271458572326e-08 -9.217838177464e-11 0.000000000000e+00
2.500000000000e+02 0.000000000000e+00 3.500000000000e+00 1.276553080914e-08 -9.217795654483e-11 0.000000000000e+00
2.490000000000e+02 0.000000000000e+00 4.500000000000e+00 1.593709907870e-08 -1.495789799183e-10 0.000000000000e+00
2.500000000000e+02 0.000000000000e+00 4.500000000000e+00 1.600095626494e-08 -1.495781448918e-10 0.000000000000e+00
2.490000000000e+02 0.000000000000e+00 5.500000000000e+00 8.767998401605e-10 -1.832637606070e-10 0.000000000000e+00
2.500000000000e+02 0.000000000000e+00 5.500000000000e+00 8.803130228474e-10 -1.832627764601e-10 0.000000000000e+00
2.490000000000e+02 0.000000000000e+00 6.500000000000e+00 8.856711348116e-08 -3.624572846377e-10 0.000000000000e+00
2.500000000000e+02 0.000000000000e+00 6.500000000000e+00 8.892198664482e-08 -3.624552810273e-10 0.000000000000e+00
2.490000000000e+02 0.000000000000e+00 7.500000000000e+00 8.072213702873e-10 -5.415086843523e-10 0.000000000000e+00
2.500000000000e+02 0.000000000000e+00 7.500000000000e+00 8.104557754740e-10 -5.415057284237e-10 0.000000000000e+00
2.490000000000e+02 0.000000000000e+00 8.500000000000e+00 4.088030430231e-09 -5.513159786014e-10 0.000000000000e+00
2.500000000000e+02 0.000000000000e+00 8.500000000000e+00 4.104410583876e-09 -5.513129356236e-10 0.000000000000e+00
2.490000000000e+02 0.000000000000e+00 9.500000000000e+00 1.572349319076e-07 -8.745164396411e-10 0.000000000000e+00
2.500000000000e+02 0.000000000000e+00 9.500000000000e+00 1.578649501209e-07 -8.745114646563e-10 0.000000000000e+00
2.490000000000e+02 0.000000000000e+00 1.050000000000e+01 1.343014017904e-07 -1.458583186122e-09 0.000000000000e+00
2.500000000000e+02 0.000000000000e+00 1.050000000000e+01 1.348395302971e-07 -1.458576033498e-09 0.000000000000e+00
2.490000000000e+02 0.000000000000e+00 1.150000000000e+01 1.892812378466e-08 -1.765563594084e-09 0.000000000000e+00
2.500000000000e+02 0.000000000000e+00 1.150000000000e+01 1.900396655254e-08 -1.765554494108e-09 0.000000000000e+00
2.490000000000e+02 0.000000000000e+00 1.250000000000e+01 4.696210174616e-09 -1.812893203431e-09 0.000000000000e+00
2.500000000000e+02 0.000000000000e+00 1.250000000000e+01 4.715027396356e-09 -1.812883544408e-09 0.000000000000e+00
2.490000000000e+02 0.000000000000e+00 1.350000000000e+01 2.242033432896e-10 -1.822751024638e-09 0.000000000000e+00
2.500000000000e+02 0.000000000000e+00 1.350000000000e+01 2.251017098088e-10 -1.822741261393e-09 0.000000000000e+00
2.490000000000e+02 0.000000000000e+00 1.450000000000e+01 1.683145579340e-08 -1.856923510663e-09 0.000000000000e+00
2.500000000000e+02 0.000000000000e+00 1.450000000000e+01 1.689890250937e-08 -1.856913591419e-09 0.000000000000e+00
2.490000000000e+02 0.000000000000e+00 1.550000000000e+01 2.457674163819e-08 -1.939887946716e-09 0.000000000000e+00
2.500000000000e+02 0.000000000000e+00 1.550000000000e+01 2.467522517030e-08 -1.939877668754e-09 0.000000000000e+00
2.490000000000e+02 0.000000000000e+00 1.650000000000e+01 7.159493457531e-09 -2.003473536796e-09 0.000000000000e+00
2.500000000000e+02 0.000000000000e+00 1.650000000000e+01 7.188182898577e-09 -2.003463076621e-09 0.000000000000e+00
2.490000000000e+02 0.000000000000e+00 1.750000000000e+01 3.742669695163e-10 -2.018568031992e-09 0.000000000000e+00
2.500000000000e+02 0.000000000000e+00 1.750000000000e+01 3.757667412361e-10 -2.018557478232e-09 0.000000000000e+00
2.490000000000e+02 0.000000000000e+00 1.850000000000e+01 5.860138444096e-09 -2.031059873519e-09 0.000000000000e+00
2.500000000000e+02 0.000000000000e+00 1.850000000000e+01 5.883622261596e-09 -2.031049254129e-09 0.000000000000e+00
2.490000000000e+02 0.000000000000e+00 1.950000000000e+01 2.772917691341e-07 -2.598410645836e-09 0.000000000000e+00
2.500000000000e+02 0.000000000000e+00 1.950000000000e+01 2.784029868761e-07 -2.598397150641e-09 0.000000000000e+00
2.490000000000e+02 0.000000000000e+00 2.050000000000e+01 5.079173439552e-11 -3.154112397085e-09 0.000000000000e+00
2.500000000000e+02 0.000000000000e+00 2.050000000000e+01 5.099528749743e-11 -3.154098153549e-09 0.000000000000e+00
2.490000000000e+02 0.000000000000e+00 2.150000000000e+01 4.108990595113e-09 -3.162451221533e-09 0.000000000000e+00
2.500000000000e+02 0.000000000000e+00 2.150000000000e+01 4.125464858562e-09 -3.162436949608e-09 0.000000000000e+00
2.490000000000e+02 0.000000000000e+00 2.250000000000e+01 4.018957456126e-08 -3.251253975066e-09 0.000000000000e+00
2.500000000000e+02 0.000000000000e+00 2.250000000000e+01 4.035070675429e-08 -3.251240054977e-09 0.000000000000e+00
2.490000000000e+02 0.000000000000e+00 2.350000000000e+01 4.253876113844e-10 -3.332672152072e-09 0.000000000000e+00
2.500000000000e+02 0.000000000000e+00 2.350000000000e+01 4.270931291555e-10 -3.332658660152e-09 0.000000000000e+00
2.490000000000e+02 0.000000000000e+00 2.450000000000e+01 6.134456734213e-09 -3.345823029779e-09 0.000000000000e+00
2.500000000000e+02 0.000000000000e+00 2.450000000000e+01 6.159052895311e-09 -3.345809642445e-09 0.000000000000e+00
2.490000000000e+02 0.000000000000e+00 2.550000000000e+01 9.034020363097e-10 -3.359932188644e-09 0.000000000000e+00
2.500000000000e+02 0.000000000000e+00 2.550000000000e+01 9.070242693709e-10 -3.359918845029e-09 0.000000000000e+00
2.490000000000e+02 0.000000000000e+00 2.650000000000e+01 6.580445334083e-09 -3.374935784732e-09 0.000000000000e+00
2.500000000000e+02 0.000000000000e+00 2.650000000000e+01 6.606830627446e-09 -3.374922438697e-09 0.000000000000e+00
2.490000000000e+02 0.000000000000e+00 2.750000000000e+01 3.741926211627e-07 -4.138315117022e-09 0.000000000000e+00
2.500000000000e+02 0.000000000000e+00 2.750000000000e+01 3.756929986644e-07 -4.138308544311e-09 0.000000000000e+00
2.490000000000e+02 0.000000000000e+00 2.850000000000e+01 3.091595771792e-09 -4.894696348618e-09 0.000000000000e+00
2.500000000000e+02 0.000000000000e+00 2.850000000000e+01 3.103991997433e-09 -4.894691447800e-09 0.000000000000e+00
2.490000000000e+02 0.000000000000e+00 2.950000000000e+01 2.166573951006e-07 -5.335253867544e-09 0.000000000000e+00
2.500000000000e+02 0.000000000000e+00 2.950000000000e+01 2.175261172171e-07 -5.335250416286e-09 0.000000000000e+00
