 TITLE = "Profiles along polylines"
 VARIABLES = "DIST" "HEAD" "VELOCITY_X1" "VELOCITY_Y1" "VELOCITY_Z1" 
 ZONE T="TIME=0.000000000000e+00"
0.000000000000e+00 3.000000000000e+01 0.000000000000e+00 0.000000000000e+00 0.000000000000e+00 
1.000000000000e+00 3.000000000000e+01 0.000000000000e+00 0.000000000000e+00 0.000000000000e+00 
2.000000000000e+00 3.000000000000e+01 0.000000000000e+00 0.000000000000e+00 0.000000000000e+00 
3.000000000000e+00 3.000000000000e+01 0.000000000000e+00 0.000000000000e+00 0.000000000000e+00 
4.000000000000e+00 3.000000000000e+01 0.000000000000e+00 0.000000000000e+00 0.000000000000e+00 
5.000000000000e+00 3.000000000000e+01 0.000000000000e+00 0.000000000000e+00 0.000000000000e+00 
6.000000000000e+00 3.000000000000e+01 0.000000000000e+00 0.000000000000e+00 0.000000000000e+00 
7.000000000000e+00 3.000000000000e+01 0.000000000000e+00 0.000000000000e+00 0.000000000000e+00 
8.000000000000e+00 3.000000000000e+01 0.000000000000e+00 0.000000000000e+00 0.000000000000e+00 
9.000000000000e+00 3.000000000000e+01 0.000000000000e+00 0.000000000000e+00 0.000000000000e+00 
1.000000000000e+01 3.000000000000e+01 0.000000000000e+00 0.000000000000e+00 0.000000000000e+00 
1.100000000000e+01 3.000000000000e+01 0.000000000000e+00 0.000000000000e+00 0.000000000000e+00 
1.200000000000e+01 3.000000000000e+01 0.000000000000e+00 0.000000000000e+00 0.000000000000e+00 
1.300000000000e+01 3.000000000000e+01 0.000000000000e+00 0.000000000000e+00 0.000000000000e+00 
1.400000000000e+01 3.000000000000e+01 0.000000000000e+00 0.000000000000e+00 0.000000000000e+00 
1.500000000000e+01 3.000000000000e+01 0.000000000000e+00 0.000000000000e+00 0.000000000000e+00 
1.600000000000e+01 3.000000000000e+01 0.000000000000e+00 0.000000000000e+00 0.000000000000e+00 
1.700000000000e+01 3.000000000000e+01 0.000000000000e+00 0.000000000000e+00 0.000000000000e+00 
1.800000000000e+01 3.000000000000e+01 0.000000000000e+00 0.000000000000e+00 0.000000000000e+00 
1.900000000000e+01 3.000000000000e+01 0.000000000000e+00 0.000000000000e+00 0.000000000000e+00 
2.000000000000e+01 3.000000000000e+01 0.000000000000e+00 0.000000000000e+00 0.000000000000e+00 
2.100000000000e+01 3.000000000000e+01 0.000000000000e+00 0.000000000000e+00 0.000000000000e+00 
2.200000000000e+01 3.000000000000e+01 0.000000000000e+00 0.000000000000e+00 0.000000000000e+00 
2.300000000000e+01 3.000000000000e+01 0.000000000000e+00 0.000000000000e+00 0.000000000000e+00 
2.400000000000e+01 3.000000000000e+01 0.000000000000e+00 0.000000000000e+00 0.000000000000e+00 
2.500000000000e+01 3.000000000000e+01 0.000000000000e+00 0.000000000000e+00 0.000000000000e+00 
2.600000000000e+01 3.000000000000e+01 0.000000000000e+00 0.000000000000e+00 0.000000000000e+00 
2.700000000000e+01 3.000000000000e+01 0.000000000000e+00 0.000000000000e+00 0.000000000000e+00 
2.800000000000e+01 3.000000000000e+01 0.000000000000e+00 0.000000000000e+00 0.000000000000e+00 
2.900000000000e+01 3.000000000000e+01 0.000000000000e+00 0.000000000000e+00 0.000000000000e+00 
3.000000000000e+01 3.000000000000e+01 0.000000000000e+00 0.000000000000e+00 0.000000000000e+00 
 TITLE = "Profiles along polylines"
 VARIABLES = "DIST" "HEAD" "VELOCITY_X1" "VELOCITY_Y1" "VELOCITY_Z1" 
 ZONE T="TIME=1.797693134862e+308"
0.000000000000e+00 3.000000000000e+01 1.094166291238e-08 1.435773189432e-21 0.000000000000e+00 
1.000000000000e+00 3.000000000000e+01 2.773326377913e-08 8.606630960484e-21 0.000000000000e+00 
2.000000000000e+00 3.000000000000e+01 2.421887158338e-08 1.140815912397e-20 0.000000000000e+00 
3.000000000000e+00 3.000000000000e+01 2.463387455239e-08 -6.452020242824e-20 0.000000000000e+00 
4.000000000000e+00 3.000000000000e+01 5.110292979535e-08 9.529591866580e-20 0.000000000000e+00 
5.000000000000e+00 3.000000000000e+01 2.998969249910e-08 3.705012469804e-20 0.000000000000e+00 
6.000000000000e+00 3.000000000000e+01 1.595993324166e-07 3.116779394550e-19 0.000000000000e+00 
7.000000000000e+00 3.000000000000e+01 1.594764569486e-07 2.026981657704e-19 0.000000000000e+00 
8.000000000000e+00 3.000000000000e+01 8.746390393784e-09 -3.835945146971e-21 0.000000000000e+00 
9.000000000000e+00 3.000000000000e+01 2.883130768140e-07 -2.192648434182e-19 0.000000000000e+00 
1.000000000000e+01 3.000000000000e+01 5.210334651617e-07 4.086335395469e-20 0.000000000000e+00 
1.100000000000e+01 3.000000000000e+01 2.738576049679e-07 4.595558500482e-19 0.000000000000e+00 
1.200000000000e+01 3.000000000000e+01 4.223018620558e-08 5.562783611454e-21 0.000000000000e+00 
1.300000000000e+01 3.000000000000e+01 8.802388851946e-09 7.419800148642e-21 0.000000000000e+00 
1.400000000000e+01 3.000000000000e+01 3.100725809996e-08 -3.160628928570e-20 0.000000000000e+00 
1.500000000000e+01 3.000000000000e+01 7.529668864618e-08 -9.456594753982e-21 0.000000000000e+00 
1.600000000000e+01 3.000000000000e+01 5.771834311458e-08 2.128128496854e-20 0.000000000000e+00 
1.700000000000e+01 3.000000000000e+01 1.370936611910e-08 -2.042066013722e-21 0.000000000000e+00 
1.800000000000e+01 3.000000000000e+01 1.146942060464e-08 -6.205689169069e-21 0.000000000000e+00 
1.900000000000e+01 3.000000000000e+01 5.212780305399e-07 -1.074679457026e-18 0.000000000000e+00 
2.000000000000e+01 3.000000000000e+01 5.105941253524e-07 -1.069912235826e-18 0.000000000000e+00 
2.100000000000e+01 3.000000000000e+01 8.836138789647e-09 -1.037641462216e-20 0.000000000000e+00 
2.200000000000e+01 3.000000000000e+01 9.425701318482e-08 -6.211371547477e-20 0.000000000000e+00 
2.300000000000e+01 3.000000000000e+01 8.643805847109e-08 -5.316764890567e-20 0.000000000000e+00 
2.400000000000e+01 3.000000000000e+01 1.430529633614e-08 2.292893963902e-20 0.000000000000e+00 
2.500000000000e+01 3.000000000000e+01 1.537465229397e-08 1.514329473164e-20 0.000000000000e+00 
2.600000000000e+01 3.000000000000e+01 1.655408506731e-08 -1.113007824511e-20 0.000000000000e+00 
2.700000000000e+01 3.000000000000e+01 8.438078285140e-07 1.053974730273e-18 0.000000000000e+00 
2.800000000000e+01 3.000000000000e+01 8.362146992639e-07 6.143991032385e-19 0.000000000000e+00 
2.900000000000e+01 3.000000000000e+01 5.050219545453e-07 -4.304467995943e-19 0.000000000000e+00 
3.000000000000e+01 3.000000000000e+01 9.992698864360e-07 -8.919591942736e-19 0.000000000000e+00 
