 TITLE = "Profiles along polylines"
 VARIABLES = "DIST" "HEAD" "VELOCITY_X1" "VELOCITY_Y1" "VELOCITY_Z1" 
 ZONE T="TIME=0.000000000000e+00"
0.000000000000e+00 3.000000000000e+01 0.000000000000e+00 0.000000000000e+00 0.000000000000e+00 
1.000000000000e+00 3.000000000000e+01 0.000000000000e+00 0.000000000000e+00 0.000000000000e+00 
2.000000000000e+00 3.000000000000e+01 0.000000000000e+00 0.000000000000e+00 0.000000000000e+00 
3.000000000000e+00 3.000000000000e+01 0.000000000000e+00 0.000000000000e+00 0.000000000000e+00 
4.000000000000e+00 3.000000000000e+01 0.000000000000e+00 0.000000000000e+00 0.000000000000e+00 
5.000000000000e+00 3.000000000000e+01 0.000000000000e+00 0.000000000000e+00 0.000000000000e+00 
6.000000000000e+00 3.000000000000e+01 0.000000000000e+00 0.000000000000e+00 0.000000000000e+00 
7.000000000000e+00 3.000000000000e+01 0.000000000000e+00 0.000000000000e+00 0.000000000000e+00 
8.000000000000e+00 3.000000000000e+01 0.000000000000e+00 0.000000000000e+00 0.000000000000e+00 
9.000000000000e+00 3.000000000000e+01 0.000000000000e+00 0.000000000000e+00 0.000000000000e+00 
1.000000000000e+01 3.000000000000e+01 0.000000000000e+00 0.000000000000e+00 0.000000000000e+00 
1.100000000000e+01 3.000000000000e+01 0.000000000000e+00 0.000000000000e+00 0.000000000000e+00 
1.200000000000e+01 3.000000000000e+01 0.000000000000e+00 0.000000000000e+00 0.000000000000e+00 
1.300000000000e+01 3.000000000000e+01 0.000000000000e+00 0.000000000000e+00 0.000000000000e+00 
1.400000000000e+01 3.000000000000e+01 0.000000000000e+00 0.000000000000e+00 0.000000000000e+00 
1.500000000000e+01 3.000000000000e+01 0.000000000000e+00 0.000000000000e+00 0.000000000000e+00 
1.600000000000e+01 3.000000000000e+01 0.000000000000e+00 0.000000000000e+00 0.000000000000e+00 
1.700000000000e+01 3.000000000000e+01 0.000000000000e+00 0.000000000000e+00 0.000000000000e+00 
1.800000000000e+01 3.000000000000e+01 0.000000000000e+00 0.000000000000e+00 0.000000000000e+00 
1.900000000000e+01 3.000000000000e+01 0.000000000000e+00 0.000000000000e+00 0.000000000000e+00 
2.000000000000e+01 3.000000000000e+01 0.000000000000e+00 0.000000000000e+00 0.000000000000e+00 
2.100000000000e+01 3.000000000000e+01 0.000000000000e+00 0.000000000000e+00 0.000000000000e+00 
2.200000000000e+01 3.000000000000e+01 0.000000000000e+00 0.000000000000e+00 0.000000000000e+00 
2.300000000000e+01 3.000000000000e+01 0.000000000000e+00 0.000000000000e+00 0.000000000000e+00 
2.400000000000e+01 3.000000000000e+01 0.000000000000e+00 0.000000000000e+00 0.000000000000e+00 
2.500000000000e+01 3.000000000000e+01 0.000000000000e+00 0.000000000000e+00 0.000000000000e+00 
2.600000000000e+01 3.000000000000e+01 0.000000000000e+00 0.000000000000e+00 0.000000000000e+00 
2.700000000000e+01 3.000000000000e+01 0.000000000000e+00 0.000000000000e+00 0.000000000000e+00 
2.800000000000e+01 3.000000000000e+01 0.000000000000e+00 0.000000000000e+00 0.000000000000e+00 
2.900000000000e+01 3.000000000000e+01 0.000000000000e+00 0.000000000000e+00 0.000000000000e+00 
3.000000000000e+01 3.000000000000e+01 0.000000000000e+00 0.000000000000e+00 0.000000000000e+00 
 TITLE = "Profiles along polylines"
 VARIABLES = "DIST" "HEAD" "VELOCITY_X1" "VELOCITY_Y1" "VELOCITY_Z1" 
 ZONE T="TIME=1.797693134862e+308"
0.000000000000e+00 3.010189999999e+01 2.092783675233e-08 -9.525222932866e-12 0.000000000000e+00 
1.000000000000e+00 3.010190044826e+01 1.242290149458e-08 -1.518014440875e-11 0.000000000000e+00 
2.000000000000e+00 3.010190568591e+01 1.290956616982e-08 -2.671379755756e-11 0.000000000000e+00 
3.000000000000e+00 3.010190715165e+01 3.365654720535e-08 -4.792122823743e-11 0.000000000000e+00 
4.000000000000e+00 3.010190852349e+01 3.004133432970e-08 -7.693422105476e-11 0.000000000000e+00 
5.000000000000e+00 3.010191460741e+01 1.908245729608e-08 -9.931511454972e-11 0.000000000000e+00 
6.000000000000e+00 3.010191913576e+01 4.180523004391e-08 -1.270713492064e-10 0.000000000000e+00 
7.000000000000e+00 3.010192153010e+01 3.844541691473e-08 -1.636632339067e-10 0.000000000000e+00 
8.000000000000e+00 3.010193217021e+01 8.478194385033e-09 -1.850653452594e-10 0.000000000000e+00 
9.000000000000e+00 3.010295809032e+01 7.627270579118e-10 -1.893141453506e-10 0.000000000000e+00 
1.000000000000e+01 3.010309786816e+01 2.418323733870e-07 -3.111633214081e-10 0.000000000000e+00 
1.100000000000e+01 3.010309875651e+01 2.427355622306e-07 -5.545654183524e-10 0.000000000000e+00 
1.200000000000e+01 3.010331152587e+01 3.558769932780e-08 -6.946305039746e-10 0.000000000000e+00 
1.300000000000e+01 3.010332191033e+01 6.265195780614e-08 -7.447088855772e-10 0.000000000000e+00 
1.400000000000e+01 3.010333534917e+01 4.150520916239e-08 -7.978353267188e-10 0.000000000000e+00 
1.500000000000e+01 3.010336689753e+01 2.954526311459e-07 -9.701015442252e-10 0.000000000000e+00 
1.600000000000e+01 3.010336886395e+01 6.718097655771e-07 -1.464768323483e-09 0.000000000000e+00 
1.700000000000e+01 3.010337116663e+01 3.896274382760e-07 -2.007642599615e-09 0.000000000000e+00 
1.800000000000e+01 3.010608570871e+01 6.773265883531e-07 -2.607098380906e-09 0.000000000000e+00 
1.900000000000e+01 3.010608792589e+01 7.213992348586e-07 -3.433473528415e-09 0.000000000000e+00 
2.000000000000e+01 3.010613123645e+01 5.002989416208e-08 -3.889264417425e-09 0.000000000000e+00 
2.100000000000e+01 3.010648351279e+01 2.815307540901e-08 -3.935579164932e-09 0.000000000000e+00 
2.200000000000e+01 3.010657082197e+01 5.245868830983e-07 -4.264562229729e-09 0.000000000000e+00 
2.300000000000e+01 3.010657537401e+01 5.747223321279e-07 -4.918898213546e-09 0.000000000000e+00 
2.400000000000e+01 3.010661148646e+01 2.330848982513e-07 -5.399744399539e-09 0.000000000000e+00 
2.500000000000e+01 3.010662873148e+01 1.611191622212e-07 -5.634418003120e-09 0.000000000000e+00 
2.600000000000e+01 3.011034493867e+01 6.365092164853e-09 -5.734126530102e-09 0.000000000000e+00 
2.700000000000e+01 3.011085697062e+01 1.299685255846e-08 -5.745663582496e-09 0.000000000000e+00 
2.800000000000e+01 3.011124508222e+01 9.036670390234e-09 -5.758792879716e-09 0.000000000000e+00 
2.900000000000e+01 3.011300533480e+01 3.096559814764e-09 -5.766022972592e-09 0.000000000000e+00 
3.000000000000e+01 3.011497579106e+01 2.923077596187e-09 -5.767868284732e-09 0.000000000000e+00 
