 TITLE = "Profiles along polylines"
 VARIABLES = "DIST" "HEAD" "VELOCITY_X1" "VELOCITY_Y1" "VELOCITY_Z1" 
 ZONE T="TIME=0.000000000000e+00"
0.000000000000e+00 3.000000000000e+01 0.000000000000e+00 0.000000000000e+00 0.000000000000e+00 
1.000000000000e+00 3.000000000000e+01 0.000000000000e+00 0.000000000000e+00 0.000000000000e+00 
2.000000000000e+00 3.000000000000e+01 0.000000000000e+00 0.000000000000e+00 0.000000000000e+00 
3.000000000000e+00 3.000000000000e+01 0.000000000000e+00 0.000000000000e+00 0.000000000000e+00 
4.000000000000e+00 3.000000000000e+01 0.000000000000e+00 0.000000000000e+00 0.000000000000e+00 
5.000000000000e+00 3.000000000000e+01 0.000000000000e+00 0.000000000000e+00 0.000000000000e+00 
6.000000000000e+00 3.000000000000e+01 0.000000000000e+00 0.000000000000e+00 0.000000000000e+00 
7.000000000000e+00 3.000000000000e+01 0.000000000000e+00 0.000000000000e+00 0.000000000000e+00 
8.000000000000e+00 3.000000000000e+01 0.000000000000e+00 0.000000000000e+00 0.000000000000e+00 
9.000000000000e+00 3.000000000000e+01 0.000000000000e+00 0.000000000000e+00 0.000000000000e+00 
1.000000000000e+01 3.000000000000e+01 0.000000000000e+00 0.000000000000e+00 0.000000000000e+00 
1.100000000000e+01 3.000000000000e+01 0.000000000000e+00 0.000000000000e+00 0.000000000000e+00 
1.200000000000e+01 3.000000000000e+01 0.000000000000e+00 0.000000000000e+00 0.000000000000e+00 
1.300000000000e+01 3.000000000000e+01 0.000000000000e+00 0.000000000000e+00 0.000000000000e+00 
1.400000000000e+01 3.000000000000e+01 0.000000000000e+00 0.000000000000e+00 0.000000000000e+00 
1.500000000000e+01 3.000000000000e+01 0.000000000000e+00 0.000000000000e+00 0.000000000000e+00 
1.600000000000e+01 3.000000000000e+01 0.000000000000e+00 0.000000000000e+00 0.000000000000e+00 
1.700000000000e+01 3.000000000000e+01 0.000000000000e+00 0.000000000000e+00 0.000000000000e+00 
1.800000000000e+01 3.000000000000e+01 0.000000000000e+00 0.000000000000e+00 0.000000000000e+00 
1.900000000000e+01 3.000000000000e+01 0.000000000000e+00 0.000000000000e+00 0.000000000000e+00 
2.000000000000e+01 3.000000000000e+01 0.000000000000e+00 0.000000000000e+00 0.000000000000e+00 
2.100000000000e+01 3.000000000000e+01 0.000000000000e+00 0.000000000000e+00 0.000000000000e+00 
2.200000000000e+01 3.000000000000e+01 0.000000000000e+00 0.000000000000e+00 0.000000000000e+00 
2.300000000000e+01 3.000000000000e+01 0.000000000000e+00 0.000000000000e+00 0.000000000000e+00 
2.400000000000e+01 3.000000000000e+01 0.000000000000e+00 0.000000000000e+00 0.000000000000e+00 
2.500000000000e+01 3.000000000000e+01 0.000000000000e+00 0.000000000000e+00 0.000000000000e+00 
2.600000000000e+01 3.000000000000e+01 0.000000000000e+00 0.000000000000e+00 0.000000000000e+00 
2.700000000000e+01 3.000000000000e+01 0.000000000000e+00 0.000000000000e+00 0.000000000000e+00 
2.800000000000e+01 3.000000000000e+01 0.000000000000e+00 0.000000000000e+00 0.000000000000e+00 
2.900000000000e+01 3.000000000000e+01 0.000000000000e+00 0.000000000000e+00 0.000000000000e+00 
3.000000000000e+01 3.000000000000e+01 0.000000000000e+00 0.000000000000e+00 0.000000000000e+00 
 TITLE = "Profiles along polylines"
 VARIABLES = "DIST" "HEAD" "VELOCITY_X1" "VELOCITY_Y1" "VELOCITY_Z1" 
 ZONE T="TIME=1.797693134862e+308"
0.000000000000e+00 3.041097727241e+01 1.174496980373e-08 -1.174604634901e-11 0.000000000000e+00 
1.000000000000e+00 3.041097782521e+01 6.971876734832e-09 -1.871752139320e-11 0.000000000000e+00 
2.000000000000e+00 3.041098428306e+01 7.244821796854e-09 -3.293430270823e-11 0.000000000000e+00 
3.000000000000e+00 3.041098609001e+01 1.888785568078e-08 -5.906805495435e-11 0.000000000000e+00 
4.000000000000e+00 3.041098778081e+01 1.685891197017e-08 -9.481485286852e-11 0.000000000000e+00 
5.000000000000e+00 3.041099527830e+01 1.070859116611e-08 -1.223822462915e-10 0.000000000000e+00 
6.000000000000e+00 3.041100085810e+01 2.345954139271e-08 -1.565520002909e-10 0.000000000000e+00 
7.000000000000e+00 3.041100380759e+01 2.157389938782e-08 -2.015859658052e-10 0.000000000000e+00 
8.000000000000e+00 3.041101691188e+01 4.757359977517e-09 -2.279164898136e-10 0.000000000000e+00 
9.000000000000e+00 3.041228033280e+01 4.259622968250e-10 -2.330997692358e-10 0.000000000000e+00 
1.000000000000e+01 3.041245240933e+01 1.349698779740e-07 -3.685107964891e-10 0.000000000000e+00 
1.100000000000e+01 3.041245344319e+01 1.354735330609e-07 -6.389688791455e-10 0.000000000000e+00 
1.200000000000e+01 3.041269701773e+01 1.984819592972e-08 -7.942923263588e-10 0.000000000000e+00 
1.300000000000e+01 3.041270887921e+01 3.494148384626e-08 -8.490855441716e-10 0.000000000000e+00 
1.400000000000e+01 3.041272417601e+01 2.314680460326e-08 -9.071759326588e-10 0.000000000000e+00 
1.500000000000e+01 3.041276001189e+01 1.647532599385e-07 -1.095095261694e-09 0.000000000000e+00 
1.600000000000e+01 3.041276222153e+01 3.746191906698e-07 -1.634506020781e-09 0.000000000000e+00 
1.700000000000e+01 3.041276477990e+01 2.172654187982e-07 -2.226411720846e-09 0.000000000000e+00 
1.800000000000e+01 3.041577051765e+01 3.750801144195e-07 -2.818808523701e-09 0.000000000000e+00 
1.900000000000e+01 3.041577287247e+01 3.994847181439e-07 -3.593437133218e-09 0.000000000000e+00 
2.000000000000e+01 3.041581767826e+01 2.770375203536e-08 -4.020640677486e-09 0.000000000000e+00 
2.100000000000e+01 3.041618159593e+01 1.558526777639e-08 -4.063932926391e-09 0.000000000000e+00 
2.200000000000e+01 3.041627171516e+01 2.903867186778e-07 -4.369943142233e-09 0.000000000000e+00 
2.300000000000e+01 3.041627635031e+01 3.181387238150e-07 -4.978515554590e-09 0.000000000000e+00 
2.400000000000e+01 3.041631270766e+01 1.290238690241e-07 -5.425701744746e-09 0.000000000000e+00 
2.500000000000e+01 3.041633000323e+01 8.918721358569e-08 -5.643930599945e-09 0.000000000000e+00 
2.600000000000e+01 3.042004801893e+01 3.523232722647e-09 -5.736646377876e-09 0.000000000000e+00 
2.700000000000e+01 3.042056025175e+01 7.194038250742e-09 -5.747364725465e-09 0.000000000000e+00 
2.800000000000e+01 3.042094844101e+01 5.001982721442e-09 -5.759561623192e-09 0.000000000000e+00 
2.900000000000e+01 3.042270881153e+01 1.714004623798e-09 -5.766278032388e-09 0.000000000000e+00 
3.000000000000e+01 3.042467931013e+01 1.617977271603e-09 -5.767992202008e-09 0.000000000000e+00 
