VARIABLES = "X","Y","Z",VELOCITY1_X,VELOCITY1_Y,VELOCITY1_Z
ZONE T="0.000000000000e+00s", 
2.490000000000e+02 0.000000000000e+00 5.000000000000e-01 0.000000000000e+00 0.000000000000e+00 0.000000000000e+00
2.500000000000e+02 0.000000000000e+00 5.000000000000e-01 0.000000000000e+00 0.000000000000e+00 0.000000000000e+00
2.490000000000e+02 0.000000000000e+00 1.500000000000e+00 0.000000000000e+00 0.000000000000e+00 0.000000000000e+00
2.500000000000e+02 0.000000000000e+00 1.500000000000e+00 0.000000000000e+00 0.000000000000e+00 0.000000000000e+00
2.490000000000e+02 0.000000000000e+00 2.500000000000e+00 0.000000000000e+00 0.000000000000e+00 0.000000000000e+00
2.500000000000e+02 0.000000000000e+00 2.500000000000e+00 0.000000000000e+00 0.000000000000e+00 0.000000000000e+00
2.490000000000e+02 0.000000000000e+00 3.500000000000e+00 0.000000000000e+00 0.000000000000e+00 0.000000000000e+00
2.500000000000e+02 0.000000000000e+00 3.500000000000e+00 0.000000000000e+00 0.000000000000e+00 0.000000000000e+00
2.490000000000e+02 0.000000000000e+00 4.500000000000e+00 0.000000000000e+00 0.000000000000e+00 0.000000000000e+00
2.500000000000e+02 0.000000000000e+00 4.500000000000e+00 0.000000000000e+00 0.000000000000e+00 0.000000000000e+00
2.490000000000e+02 0.000000000000e+00 5.500000000000e+00 0.000000000000e+00 0.000000000000e+00 0.000000000000e+00
2.500000000000e+02 0.000000000000e+00 5.500000000000e+00 0.000000000000e+00 0.000000000000e+00 0.000000000000e+00
2.490000000000e+02 0.000000000000e+00 6.500000000000e+00 0.000000000000e+00 0.000000000000e+00 0.000000000000e+00
2.500000000000e+02 0.000000000000e+00 6.500000000000e+00 0.000000000000e+00 0.000000000000e+00 0.000000000000e+00
2.490000000000e+02 0.000000000000e+00 7.500000000000e+00 0.000000000000e+00 0.000000000000e+00 0.000000000000e+00
2.500000000000e+02 0.000000000000e+00 7.500000000000e+00 0.000000000000e+00 0.000000000000e+00 0.000000000000e+00
2.490000000000e+02 0.000000000000e+00 8.500000000000e+00 0.000000000000e+00 0.000000000000e+00 0.000000000000e+00
2.500000000000e+02 0.000000000000e+00 8.500000000000e+00 0.000000000000e+00 0.000000000000e+00 0.000000000000e+00
2.490000000000e+02 0.000000000000e+00 9.500000000000e+00 0.000000000000e+00 0.000000000000e+00 0.000000000000e+00
2.500000000000e+02 0.000000000000e+00 9.500000000000e+00 0.000000000000e+00 0.000000000000e+00 0.000000000000e+00
2.490000000000e+02 0.000000000000e+00 1.050000000000e+01 0.000000000000e+00 0.000000000000e+00 0.000000000000e+00
2.500000000000e+02 0.000000000000e+00 1.050000000000e+01 0.000000000000e+00 0.000000000000e+00 0.000000000000e+00
2.490000000000e+02 0.000000000000e+00 1.150000000000e+01 0.000000000000e+00 0.000000000000e+00 0.000000000000e+00
2.500000000000e+02 0.000000000000e+00 1.150000000000e+01 0.000000000000e+00 0.000000000000e+00 0.000000000000e+00
2.490000000000e+02 0.000000000000e+00 1.250000000000e+01 0.000000000000e+00 0.000000000000e+00 0.000000000000e+00
2.500000000000e+02 0.000000000000e+00 1.250000000000e+01 0.000000000000e+00 0.000000000000e+00 0.000000000000e+00
2.490000000000e+02 0.000000000000e+00 1.350000000000e+01 0.000000000000e+00 0.000000000000e+00 0.000000000000e+00
2.500000000000e+02 0.000000000000e+00 1.350000000000e+01 0.000000000000e+00 0.000000000000e+00 0.000000000000e+00
2.490000000000e+02 0.000000000000e+00 1.450000000000e+01 0.000000000000e+00 0.000000000000e+00 0.000000000000e+00
2.500000000000e+02 0.000000000000e+00 1.450000000000e+01 0.000000000000e+00 0.000000000000e+00 0.000000000000e+00
2.490000000000e+02 0.000000000000e+00 1.550000000000e+01 0.000000000000e+00 0.000000000000e+00 0.000000000000e+00
2.500000000000e+02 0.000000000000e+00 1.550000000000e+01 0.000000000000e+00 0.000000000000e+00 0.000000000000e+00
2.490000000000e+02 0.000000000000e+00 1.650000000000e+01 0.000000000000e+00 0.000000000000e+00 0.000000000000e+00
2.500000000000e+02 0.000000000000e+00 1.650000000000e+01 0.000000000000e+00 0.000000000000e+00 0.000000000000e+00
2.490000000000e+02 0.000000000000e+00 1.750000000000e+01 0.000000000000e+00 0.000000000000e+00 0.000000000000e+00
2.500000000000e+02 0.000000000000e+00 1.750000000000e+01 0.000000000000e+00 0.000000000000e+00 0.000000000000e+00
2.490000000000e+02 0.000000000000e+00 1.850000000000e+01 0.000000000000e+00 0.000000000000e+00 0.000000000000e+00
2.500000000000e+02 0.000000000000e+00 1.850000000000e+01 0.000000000000e+00 0.000000000000e+00 0.000000000000e+00
2.490000000000e+02 0.000000000000e+00 1.950000000000e+01 0.000000000000e+00 0.000000000000e+00 0.000000000000e+00
2.500000000000e+02 0.000000000000e+00 1.950000000000e+01 0.000000000000e+00 0.000000000000e+00 0.000000000000e+00
2.490000000000e+02 0.000000000000e+00 2.050000000000e+01 0.000000000000e+00 0.000000000000e+00 0.000000000000e+00
2.500000000000e+02 0.000000000000e+00 2.050000000000e+01 0.000000000000e+00 0.000000000000e+00 0.000000000000e+00
2.490000000000e+02 0.000000000000e+00 2.150000000000e+01 0.000000000000e+00 0.000000000000e+00 0.000000000000e+00
2.500000000000e+02 0.000000000000e+00 2.150000000000e+01 0.000000000000e+00 0.000000000000e+00 0.000000000000e+00
2.490000000000e+02 0.000000000000e+00 2.250000000000e+01 0.000000000000e+00 0.000000000000e+00 0.000000000000e+00
2.500000000000e+02 0.000000000000e+00 2.250000000000e+01 0.000000000000e+00 0.000000000000e+00 0.000000000000e+00
2.490000000000e+02 0.000000000000e+00 2.350000000000e+01 0.000000000000e+00 0.000000000000e+00 0.000000000000e+00
2.500000000000e+02 0.000000000000e+00 2.350000000000e+01 0.000000000000e+00 0.000000000000e+00 0.000000000000e+00
2.490000000000e+02 0.000000000000e+00 2.450000000000e+01 0.000000000000e+00 0.000000000000e+00 0.000000000000e+00
2.500000000000e+02 0.000000000000e+00 2.450000000000e+01 0.000000000000e+00 0.000000000000e+00 0.000000000000e+00
2.490000000000e+02 0.000000000000e+00 2.550000000000e+01 0.000000000000e+00 0.000000000000e+00 0.000000000000e+00
2.500000000000e+02 0.000000000000e+00 2.550000000000e+01 0.000000000000e+00 0.000000000000e+00 0.000000000000e+00
2.490000000000e+02 0.000000000000e+00 2.650000000000e+01 0.000000000000e+00 0.000000000000e+00 0.000000000000e+00
2.500000000000e+02 0.000000000000e+00 2.650000000000e+01 0.000000000000e+00 0.000000000000e+00 0.000000000000e+00
2.490000000000e+02 0.000000000000e+00 2.750000000000e+01 0.000000000000e+00 0.000000000000e+00 0.000000000000e+00
2.500000000000e+02 0.000000000000e+00 2.750000000000e+01 0.000000000000e+00 0.000000000000e+00 0.000000000000e+00
2.490000000000e+02 0.000000000000e+00 2.850000000000e+01 0.000000000000e+00 0.000000000000e+00 0.000000000000e+00
2.500000000000e+02 0.000000000000e+00 2.850000000000e+01 0.000000000000e+00 0.000000000000e+00 0.000000000000e+00
2.490000000000e+02 0.000000000000e+00 2.950000000000e+01 0.000000000000e+00 0.000000000000e+00 0.000000000000e+00
2.500000000000e+02 0.000000000000e+00 2.950000000000e+01 0.000000000000e+00 0.000000000000e+00 0.000000000000e+00
VARIABLES = "X","Y","Z",VELOCITY1_X,VELOCITY1_Y,VELOCITY1_Z
ZONE T="1.797693134862e+308s", 
2.490000000000e+02 0.000000000000e+00 5.000000000000e-01 5.860257009109e-09 -1.174457797372e-11 0.000000000000e+00
2.500000000000e+02 0.000000000000e+00 5.000000000000e-01 5.883745724035e-09 -1.174457155708e-11 0.000000000000e+00
2.490000000000e+02 0.000000000000e+00 1.500000000000e+00 1.097102636915e-09 -2.568884775428e-11 0.000000000000e+00
2.500000000000e+02 0.000000000000e+00 1.500000000000e+00 1.101499972353e-09 -2.568884398090e-11 0.000000000000e+00
2.490000000000e+02 0.000000000000e+00 2.500000000000e+00 6.132633732520e-09 -4.017817456208e-11 0.000000000000e+00
2.500000000000e+02 0.000000000000e+00 2.500000000000e+00 6.157214154192e-09 -4.017817187613e-11 0.000000000000e+00
2.490000000000e+02 0.000000000000e+00 3.500000000000e+00 1.271589296943e-08 -7.795371235350e-11 0.000000000000e+00
2.500000000000e+02 0.000000000000e+00 3.500000000000e+00 1.276685998083e-08 -7.795370580143e-11 0.000000000000e+00
2.490000000000e+02 0.000000000000e+00 4.500000000000e+00 4.107914740932e-09 -1.116724167478e-10 0.000000000000e+00
2.500000000000e+02 0.000000000000e+00 4.500000000000e+00 4.124379818369e-09 -1.116724021428e-10 0.000000000000e+00
2.490000000000e+02 0.000000000000e+00 5.500000000000e+00 6.578378575379e-09 -1.330893938167e-10 0.000000000000e+00
2.500000000000e+02 0.000000000000e+00 5.500000000000e+00 6.604745602492e-09 -1.330893794109e-10 0.000000000000e+00
2.490000000000e+02 0.000000000000e+00 6.500000000000e+00 1.683231441801e-08 -1.800078591618e-10 0.000000000000e+00
2.500000000000e+02 0.000000000000e+00 6.500000000000e+00 1.689978061204e-08 -1.800078370453e-10 0.000000000000e+00
2.490000000000e+02 0.000000000000e+00 7.500000000000e+00 4.696662900394e-09 -2.231567598362e-10 0.000000000000e+00
2.500000000000e+02 0.000000000000e+00 7.500000000000e+00 4.715487760776e-09 -2.231567352729e-10 0.000000000000e+00
2.490000000000e+02 0.000000000000e+00 8.500000000000e+00 5.079107869274e-11 -2.326716772446e-10 0.000000000000e+00
2.500000000000e+02 0.000000000000e+00 8.500000000000e+00 5.099465619932e-11 -2.326716491370e-10 0.000000000000e+00
2.490000000000e+02 0.000000000000e+00 9.500000000000e+00 3.742841890985e-10 -2.335235841452e-10 0.000000000000e+00
2.500000000000e+02 0.000000000000e+00 9.500000000000e+00 3.757843683203e-10 -2.335235555447e-10 0.000000000000e+00
2.490000000000e+02 0.000000000000e+00 1.050000000000e+01 1.343145357678e-07 -5.034577872371e-10 0.000000000000e+00
2.500000000000e+02 0.000000000000e+00 1.050000000000e+01 1.348528852753e-07 -5.034576003761e-10 0.000000000000e+00
2.490000000000e+02 0.000000000000e+00 1.150000000000e+01 8.768903726816e-10 -7.744352625493e-10 0.000000000000e+00
2.500000000000e+02 0.000000000000e+00 1.150000000000e+01 8.804050622471e-10 -7.744352422620e-10 0.000000000000e+00
2.490000000000e+02 0.000000000000e+00 1.250000000000e+01 1.892997336472e-08 -8.141312757478e-10 0.000000000000e+00
2.500000000000e+02 0.000000000000e+00 1.250000000000e+01 1.900584756500e-08 -8.141312789178e-10 0.000000000000e+00
2.490000000000e+02 0.000000000000e+00 1.350000000000e+01 1.593874763849e-08 -8.840190297439e-10 0.000000000000e+00
2.500000000000e+02 0.000000000000e+00 1.350000000000e+01 1.600263278054e-08 -8.840191818842e-10 0.000000000000e+00
2.490000000000e+02 0.000000000000e+00 1.450000000000e+01 7.159855389446e-09 -9.303162348328e-10 0.000000000000e+00
2.500000000000e+02 0.000000000000e+00 1.450000000000e+01 7.188553396339e-09 -9.303163121222e-10 0.000000000000e+00
2.490000000000e+02 0.000000000000e+00 1.550000000000e+01 1.572503125858e-07 -1.259818192167e-09 0.000000000000e+00
2.500000000000e+02 0.000000000000e+00 1.550000000000e+01 1.578806033497e-07 -1.259822555407e-09 0.000000000000e+00
2.490000000000e+02 0.000000000000e+00 1.650000000000e+01 2.165887410705e-07 -2.009093569283e-09 0.000000000000e+00
2.500000000000e+02 0.000000000000e+00 1.650000000000e+01 2.174568802491e-07 -2.009101654769e-09 0.000000000000e+00
2.490000000000e+02 0.000000000000e+00 1.750000000000e+01 2.242235894298e-10 -2.443676668815e-09 0.000000000000e+00
2.500000000000e+02 0.000000000000e+00 1.750000000000e+01 2.251223317785e-10 -2.443676537992e-09 0.000000000000e+00
2.490000000000e+02 0.000000000000e+00 1.850000000000e+01 3.740748563503e-07 -3.193828408792e-09 0.000000000000e+00
2.500000000000e+02 0.000000000000e+00 1.850000000000e+01 3.755741955492e-07 -3.193829974871e-09 0.000000000000e+00
2.490000000000e+02 0.000000000000e+00 1.950000000000e+01 2.457800974469e-08 -3.992929656432e-09 0.000000000000e+00
2.500000000000e+02 0.000000000000e+00 1.950000000000e+01 2.467652161100e-08 -3.992929684294e-09 0.000000000000e+00
2.490000000000e+02 0.000000000000e+00 2.050000000000e+01 3.068054034108e-09 -4.048344615961e-09 0.000000000000e+00
2.500000000000e+02 0.000000000000e+00 2.050000000000e+01 3.080351181957e-09 -4.048344552766e-09 0.000000000000e+00
2.490000000000e+02 0.000000000000e+00 2.150000000000e+01 1.248475937684e-08 -4.079515009699e-09 0.000000000000e+00
2.500000000000e+02 0.000000000000e+00 2.150000000000e+01 1.253479974903e-08 -4.079514953411e-09 0.000000000000e+00
2.490000000000e+02 0.000000000000e+00 2.250000000000e+01 2.772972631074e-07 -4.660286621213e-09 0.000000000000e+00
2.500000000000e+02 0.000000000000e+00 2.250000000000e+01 2.784087012429e-07 -4.660287414208e-09 0.000000000000e+00
2.490000000000e+02 0.000000000000e+00 2.350000000000e+01 4.017897387189e-08 -5.296667762553e-09 0.000000000000e+00
2.500000000000e+02 0.000000000000e+00 2.350000000000e+01 4.034001568029e-08 -5.296667726841e-09 0.000000000000e+00
2.490000000000e+02 0.000000000000e+00 2.450000000000e+01 8.857621760378e-08 -5.554726419506e-09 0.000000000000e+00
2.500000000000e+02 0.000000000000e+00 2.450000000000e+01 8.893124109742e-08 -5.554726364738e-09 0.000000000000e+00
2.490000000000e+02 0.000000000000e+00 2.550000000000e+01 4.252737611207e-10 -5.733122980971e-09 0.000000000000e+00
2.500000000000e+02 0.000000000000e+00 2.550000000000e+01 4.269783052604e-10 -5.733122968854e-09 0.000000000000e+00
2.490000000000e+02 0.000000000000e+00 2.650000000000e+01 3.090622350738e-09 -5.740169441998e-09 0.000000000000e+00
2.500000000000e+02 0.000000000000e+00 2.650000000000e+01 3.103009900163e-09 -5.740169443193e-09 0.000000000000e+00
2.490000000000e+02 0.000000000000e+00 2.750000000000e+01 4.088435396602e-09 -5.754558697607e-09 0.000000000000e+00
2.500000000000e+02 0.000000000000e+00 2.750000000000e+01 4.104822294077e-09 -5.754558691550e-09 0.000000000000e+00
2.490000000000e+02 0.000000000000e+00 2.850000000000e+01 9.031314213663e-10 -5.764563993679e-09 0.000000000000e+00
2.500000000000e+02 0.000000000000e+00 2.850000000000e+01 9.067512741306e-10 -5.764563975193e-09 0.000000000000e+00
2.490000000000e+02 0.000000000000e+00 2.950000000000e+01 8.073040409900e-10 -5.767992176249e-09 0.000000000000e+00
2.500000000000e+02 0.000000000000e+00 2.950000000000e+01 8.105398061037e-10 -5.767992167607e-09 0.000000000000e+00
