VARIABLES = "X","Y","Z",VELOCITY1_X,VELOCITY1_Y,VELOCITY1_Z
ZONE T="0.000000000000e+00s", 
4.900000000000e+01 0.000000000000e+00 5.000000000000e-01 0.000000000000e+00 0.000000000000e+00 0.000000000000e+00
5.000000000000e+01 0.000000000000e+00 5.000000000000e-01 0.000000000000e+00 0.000000000000e+00 0.000000000000e+00
4.900000000000e+01 0.000000000000e+00 1.500000000000e+00 0.000000000000e+00 0.000000000000e+00 0.000000000000e+00
5.000000000000e+01 0.000000000000e+00 1.500000000000e+00 0.000000000000e+00 0.000000000000e+00 0.000000000000e+00
4.900000000000e+01 0.000000000000e+00 2.500000000000e+00 0.000000000000e+00 0.000000000000e+00 0.000000000000e+00
5.000000000000e+01 0.000000000000e+00 2.500000000000e+00 0.000000000000e+00 0.000000000000e+00 0.000000000000e+00
4.900000000000e+01 0.000000000000e+00 3.500000000000e+00 0.000000000000e+00 0.000000000000e+00 0.000000000000e+00
5.000000000000e+01 0.000000000000e+00 3.500000000000e+00 0.000000000000e+00 0.000000000000e+00 0.000000000000e+00
4.900000000000e+01 0.000000000000e+00 4.500000000000e+00 0.000000000000e+00 0.000000000000e+00 0.000000000000e+00
5.000000000000e+01 0.000000000000e+00 4.500000000000e+00 0.000000000000e+00 0.000000000000e+00 0.000000000000e+00
4.900000000000e+01 0.000000000000e+00 5.500000000000e+00 0.000000000000e+00 0.000000000000e+00 0.000000000000e+00
5.000000000000e+01 0.000000000000e+00 5.500000000000e+00 0.000000000000e+00 0.000000000000e+00 0.000000000000e+00
4.900000000000e+01 0.000000000000e+00 6.500000000000e+00 0.000000000000e+00 0.000000000000e+00 0.000000000000e+00
5.000000000000e+01 0.000000000000e+00 6.500000000000e+00 0.000000000000e+00 0.000000000000e+00 0.000000000000e+00
4.900000000000e+01 0.000000000000e+00 7.500000000000e+00 0.000000000000e+00 0.000000000000e+00 0.000000000000e+00
5.000000000000e+01 0.000000000000e+00 7.500000000000e+00 0.000000000000e+00 0.000000000000e+00 0.000000000000e+00
4.900000000000e+01 0.000000000000e+00 8.500000000000e+00 0.000000000000e+00 0.000000000000e+00 0.000000000000e+00
5.000000000000e+01 0.000000000000e+00 8.500000000000e+00 0.000000000000e+00 0.000000000000e+00 0.000000000000e+00
4.900000000000e+01 0.000000000000e+00 9.500000000000e+00 0.000000000000e+00 0.000000000000e+00 0.000000000000e+00
5.000000000000e+01 0.000000000000e+00 9.500000000000e+00 0.000000000000e+00 0.000000000000e+00 0.000000000000e+00
4.900000000000e+01 0.000000000000e+00 1.050000000000e+01 0.000000000000e+00 0.000000000000e+00 0.000000000000e+00
5.000000000000e+01 0.000000000000e+00 1.050000000000e+01 0.000000000000e+00 0.000000000000e+00 0.000000000000e+00
4.900000000000e+01 0.000000000000e+00 1.150000000000e+01 0.000000000000e+00 0.000000000000e+00 0.000000000000e+00
5.000000000000e+01 0.000000000000e+00 1.150000000000e+01 0.000000000000e+00 0.000000000000e+00 0.000000000000e+00
4.900000000000e+01 0.000000000000e+00 1.250000000000e+01 0.000000000000e+00 0.000000000000e+00 0.000000000000e+00
5.000000000000e+01 0.000000000000e+00 1.250000000000e+01 0.000000000000e+00 0.000000000000e+00 0.000000000000e+00
4.900000000000e+01 0.000000000000e+00 1.350000000000e+01 0.000000000000e+00 0.000000000000e+00 0.000000000000e+00
5.000000000000e+01 0.000000000000e+00 1.350000000000e+01 0.000000000000e+00 0.000000000000e+00 0.000000000000e+00
4.900000000000e+01 0.000000000000e+00 1.450000000000e+01 0.000000000000e+00 0.000000000000e+00 0.000000000000e+00
5.000000000000e+01 0.000000000000e+00 1.450000000000e+01 0.000000000000e+00 0.000000000000e+00 0.000000000000e+00
4.900000000000e+01 0.000000000000e+00 1.550000000000e+01 0.000000000000e+00 0.000000000000e+00 0.000000000000e+00
5.000000000000e+01 0.000000000000e+00 1.550000000000e+01 0.000000000000e+00 0.000000000000e+00 0.000000000000e+00
4.900000000000e+01 0.000000000000e+00 1.650000000000e+01 0.000000000000e+00 0.000000000000e+00 0.000000000000e+00
5.000000000000e+01 0.000000000000e+00 1.650000000000e+01 0.000000000000e+00 0.000000000000e+00 0.000000000000e+00
4.900000000000e+01 0.000000000000e+00 1.750000000000e+01 0.000000000000e+00 0.000000000000e+00 0.000000000000e+00
5.000000000000e+01 0.000000000000e+00 1.750000000000e+01 0.000000000000e+00 0.000000000000e+00 0.000000000000e+00
4.900000000000e+01 0.000000000000e+00 1.850000000000e+01 0.000000000000e+00 0.000000000000e+00 0.000000000000e+00
5.000000000000e+01 0.000000000000e+00 1.850000000000e+01 0.000000000000e+00 0.000000000000e+00 0.000000000000e+00
4.900000000000e+01 0.000000000000e+00 1.950000000000e+01 0.000000000000e+00 0.000000000000e+00 0.000000000000e+00
5.000000000000e+01 0.000000000000e+00 1.950000000000e+01 0.000000000000e+00 0.000000000000e+00 0.000000000000e+00
4.900000000000e+01 0.000000000000e+00 2.050000000000e+01 0.000000000000e+00 0.000000000000e+00 0.000000000000e+00
5.000000000000e+01 0.000000000000e+00 2.050000000000e+01 0.000000000000e+00 0.000000000000e+00 0.000000000000e+00
4.900000000000e+01 0.000000000000e+00 2.150000000000e+01 0.000000000000e+00 0.000000000000e+00 0.000000000000e+00
5.000000000000e+01 0.000000000000e+00 2.150000000000e+01 0.000000000000e+00 0.000000000000e+00 0.000000000000e+00
4.900000000000e+01 0.000000000000e+00 2.250000000000e+01 0.000000000000e+00 0.000000000000e+00 0.000000000000e+00
5.000000000000e+01 0.000000000000e+00 2.250000000000e+01 0.000000000000e+00 0.000000000000e+00 0.000000000000e+00
4.900000000000e+01 0.000000000000e+00 2.350000000000e+01 0.000000000000e+00 0.000000000000e+00 0.000000000000e+00
5.000000000000e+01 0.000000000000e+00 2.350000000000e+01 0.000000000000e+00 0.000000000000e+00 0.000000000000e+00
4.900000000000e+01 0.000000000000e+00 2.450000000000e+01 0.000000000000e+00 0.000000000000e+00 0.000000000000e+00
5.000000000000e+01 0.000000000000e+00 2.450000000000e+01 0.000000000000e+00 0.000000000000e+00 0.000000000000e+00
4.900000000000e+01 0.000000000000e+00 2.550000000000e+01 0.000000000000e+00 0.000000000000e+00 0.000000000000e+00
5.000000000000e+01 0.000000000000e+00 2.550000000000e+01 0.000000000000e+00 0.000000000000e+00 0.000000000000e+00
4.900000000000e+01 0.000000000000e+00 2.650000000000e+01 0.000000000000e+00 0.000000000000e+00 0.000000000000e+00
5.000000000000e+01 0.000000000000e+00 2.650000000000e+01 0.000000000000e+00 0.000000000000e+00 0.000000000000e+00
4.900000000000e+01 0.000000000000e+00 2.750000000000e+01 0.000000000000e+00 0.000000000000e+00 0.000000000000e+00
5.000000000000e+01 0.000000000000e+00 2.750000000000e+01 0.000000000000e+00 0.000000000000e+00 0.000000000000e+00
4.900000000000e+01 0.000000000000e+00 2.850000000000e+01 0.000000000000e+00 0.000000000000e+00 0.000000000000e+00
5.000000000000e+01 0.000000000000e+00 2.850000000000e+01 0.000000000000e+00 0.000000000000e+00 0.000000000000e+00
4.900000000000e+01 0.000000000000e+00 2.950000000000e+01 0.000000000000e+00 0.000000000000e+00 0.000000000000e+00
5.000000000000e+01 0.000000000000e+00 2.950000000000e+01 0.000000000000e+00 0.000000000000e+00 0.000000000000e+00
VARIABLES = "X","Y","Z",VELOCITY1_X,VELOCITY1_Y,VELOCITY1_Z
ZONE T="1.797693134862e+308s", 
4.900000000000e+01 0.000000000000e+00 5.000000000000e-01 1.162648371871e-09 -1.174447002317e-11 0.000000000000e+00
5.000000000000e+01 0.000000000000e+00 5.000000000000e-01 1.186136217578e-09 -1.174446821141e-11 0.000000000000e+00
4.900000000000e+01 0.000000000000e+00 1.500000000000e+00 2.176601801751e-10 -2.569007782000e-11 0.000000000000e+00
5.000000000000e+01 0.000000000000e+00 1.500000000000e+00 2.220573563398e-10 -2.569007350959e-11 0.000000000000e+00
4.900000000000e+01 0.000000000000e+00 2.500000000000e+00 1.216686696888e-09 -4.017952527948e-11 0.000000000000e+00
5.000000000000e+01 0.000000000000e+00 2.500000000000e+00 1.241266220504e-09 -4.017952591147e-11 0.000000000000e+00
4.900000000000e+01 0.000000000000e+00 3.500000000000e+00 2.522775444852e-09 -7.795633302060e-11 0.000000000000e+00
5.000000000000e+01 0.000000000000e+00 3.500000000000e+00 2.573740623393e-09 -7.795631762321e-11 0.000000000000e+00
4.900000000000e+01 0.000000000000e+00 4.500000000000e+00 8.149916435948e-10 -1.116776880549e-10 0.000000000000e+00
5.000000000000e+01 0.000000000000e+00 4.500000000000e+00 8.314561250299e-10 -1.116776724973e-10 0.000000000000e+00
4.900000000000e+01 0.000000000000e+00 5.500000000000e+00 1.305120477739e-09 -1.330952409111e-10 0.000000000000e+00
5.000000000000e+01 0.000000000000e+00 5.500000000000e+00 1.331486554626e-09 -1.330952194718e-10 0.000000000000e+00
4.900000000000e+01 0.000000000000e+00 6.500000000000e+00 3.339454896227e-09 -1.800146680044e-10 0.000000000000e+00
5.000000000000e+01 0.000000000000e+00 6.500000000000e+00 3.406918632235e-09 -1.800146387326e-10 0.000000000000e+00
4.900000000000e+01 0.000000000000e+00 7.500000000000e+00 9.317966437321e-10 -2.231668645687e-10 0.000000000000e+00
5.000000000000e+01 0.000000000000e+00 7.500000000000e+00 9.506208194559e-10 -2.231668285706e-10 0.000000000000e+00
4.900000000000e+01 0.000000000000e+00 8.500000000000e+00 1.007672322150e-11 -2.326824486510e-10 0.000000000000e+00
5.000000000000e+01 0.000000000000e+00 8.500000000000e+00 1.028029333928e-11 -2.326824165046e-10 0.000000000000e+00
4.900000000000e+01 0.000000000000e+00 9.500000000000e+00 7.425648772297e-11 -2.335343469909e-10 0.000000000000e+00
5.000000000000e+01 0.000000000000e+00 9.500000000000e+00 7.575662153134e-11 -2.335343147983e-10 0.000000000000e+00
4.900000000000e+01 0.000000000000e+00 1.050000000000e+01 2.664747569381e-08 -5.034643031490e-10 0.000000000000e+00
5.000000000000e+01 0.000000000000e+00 1.050000000000e+01 2.718580894623e-08 -5.034646630294e-10 0.000000000000e+00
4.900000000000e+01 0.000000000000e+00 1.150000000000e+01 1.739716112376e-10 -7.744542529883e-10 0.000000000000e+00
5.000000000000e+01 0.000000000000e+00 1.150000000000e+01 1.774861928985e-10 -7.744541416004e-10 0.000000000000e+00
4.900000000000e+01 0.000000000000e+00 1.250000000000e+01 3.755634517817e-09 -8.141494125419e-10 0.000000000000e+00
5.000000000000e+01 0.000000000000e+00 1.250000000000e+01 3.831506190620e-09 -8.141494503386e-10 0.000000000000e+00
4.900000000000e+01 0.000000000000e+00 1.350000000000e+01 3.162186747200e-09 -8.840388122946e-10 0.000000000000e+00
5.000000000000e+01 0.000000000000e+00 1.350000000000e+01 3.226069459236e-09 -8.840386716521e-10 0.000000000000e+00
4.900000000000e+01 0.000000000000e+00 1.450000000000e+01 1.420488106059e-09 -9.303371888475e-10 0.000000000000e+00
5.000000000000e+01 0.000000000000e+00 1.450000000000e+01 1.449184817178e-09 -9.303370136089e-10 0.000000000000e+00
4.900000000000e+01 0.000000000000e+00 1.550000000000e+01 3.119786883197e-08 -1.259832254197e-09 0.000000000000e+00
5.000000000000e+01 0.000000000000e+00 1.550000000000e+01 3.182812551334e-08 -1.259831514836e-09 0.000000000000e+00
4.900000000000e+01 0.000000000000e+00 1.650000000000e+01 4.297039285236e-08 -2.009123679210e-09 0.000000000000e+00
5.000000000000e+01 0.000000000000e+00 1.650000000000e+01 4.383847061242e-08 -2.009118358636e-09 0.000000000000e+00
4.900000000000e+01 0.000000000000e+00 1.750000000000e+01 4.448513728498e-11 -2.443718056637e-09 0.000000000000e+00
5.000000000000e+01 0.000000000000e+00 1.750000000000e+01 4.538380989830e-11 -2.443717922218e-09 0.000000000000e+00
4.900000000000e+01 0.000000000000e+00 1.850000000000e+01 7.421523612863e-08 -3.193854988758e-09 0.000000000000e+00
5.000000000000e+01 0.000000000000e+00 1.850000000000e+01 7.571452450648e-08 -3.193851760227e-09 0.000000000000e+00
4.900000000000e+01 0.000000000000e+00 1.950000000000e+01 4.876197512022e-09 -3.992954378884e-09 0.000000000000e+00
5.000000000000e+01 0.000000000000e+00 1.950000000000e+01 4.974705914908e-09 -3.992954193037e-09 0.000000000000e+00
4.900000000000e+01 0.000000000000e+00 2.050000000000e+01 6.086920211617e-10 -4.048368871402e-09 0.000000000000e+00
5.000000000000e+01 0.000000000000e+00 2.050000000000e+01 6.209888054414e-10 -4.048368634311e-09 0.000000000000e+00
4.900000000000e+01 0.000000000000e+00 2.150000000000e+01 2.476936802182e-09 -4.079538673073e-09 0.000000000000e+00
5.000000000000e+01 0.000000000000e+00 2.150000000000e+01 2.526975924024e-09 -4.079538406909e-09 0.000000000000e+00
4.900000000000e+01 0.000000000000e+00 2.250000000000e+01 5.501490545444e-08 -4.660299205537e-09 0.000000000000e+00
5.000000000000e+01 0.000000000000e+00 2.250000000000e+01 5.612631888705e-08 -4.660299130524e-09 0.000000000000e+00
4.900000000000e+01 0.000000000000e+00 2.350000000000e+01 7.971382166610e-09 -5.296674151458e-09 0.000000000000e+00
5.000000000000e+01 0.000000000000e+00 2.350000000000e+01 8.132420416372e-09 -5.296674070717e-09 0.000000000000e+00
4.900000000000e+01 0.000000000000e+00 2.450000000000e+01 1.757324339665e-08 -5.554728805355e-09 0.000000000000e+00
5.000000000000e+01 0.000000000000e+00 2.450000000000e+01 1.792825890080e-08 -5.554728807637e-09 0.000000000000e+00
4.900000000000e+01 0.000000000000e+00 2.550000000000e+01 8.437297799186e-11 -5.733123564441e-09 0.000000000000e+00
5.000000000000e+01 0.000000000000e+00 2.550000000000e+01 8.607748530760e-11 -5.733123566523e-09 0.000000000000e+00
4.900000000000e+01 0.000000000000e+00 2.650000000000e+01 6.131697333279e-10 -5.740169890205e-09 0.000000000000e+00
5.000000000000e+01 0.000000000000e+00 2.650000000000e+01 6.255570284167e-10 -5.740169893430e-09 0.000000000000e+00
4.900000000000e+01 0.000000000000e+00 2.750000000000e+01 8.111326925144e-10 -5.754558871667e-09 0.000000000000e+00
5.000000000000e+01 0.000000000000e+00 2.750000000000e+01 8.275192516905e-10 -5.754558874248e-09 0.000000000000e+00
4.900000000000e+01 0.000000000000e+00 2.850000000000e+01 1.791784251485e-10 -5.764564070905e-09 0.000000000000e+00
5.000000000000e+01 0.000000000000e+00 2.850000000000e+01 1.827981995924e-10 -5.764564074441e-09 0.000000000000e+00
4.900000000000e+01 0.000000000000e+00 2.950000000000e+01 1.601665690446e-10 -5.767992211597e-09 0.000000000000e+00
5.000000000000e+01 0.000000000000e+00 2.950000000000e+01 1.634022652597e-10 -5.767992212834e-09 0.000000000000e+00
