VARIABLES = "X","Y","Z",VELOCITY1_X,VELOCITY1_Y,VELOCITY1_Z
ZONE T="0.000000000000e+00s", 
7.490000000000e+02 0.000000000000e+00 5.000000000000e-01 0.000000000000e+00 0.000000000000e+00 0.000000000000e+00
7.500000000000e+02 0.000000000000e+00 5.000000000000e-01 0.000000000000e+00 0.000000000000e+00 0.000000000000e+00
7.490000000000e+02 0.000000000000e+00 1.500000000000e+00 0.000000000000e+00 0.000000000000e+00 0.000000000000e+00
7.500000000000e+02 0.000000000000e+00 1.500000000000e+00 0.000000000000e+00 0.000000000000e+00 0.000000000000e+00
7.490000000000e+02 0.000000000000e+00 2.500000000000e+00 0.000000000000e+00 0.000000000000e+00 0.000000000000e+00
7.500000000000e+02 0.000000000000e+00 2.500000000000e+00 0.000000000000e+00 0.000000000000e+00 0.000000000000e+00
7.490000000000e+02 0.000000000000e+00 3.500000000000e+00 0.000000000000e+00 0.000000000000e+00 0.000000000000e+00
7.500000000000e+02 0.000000000000e+00 3.500000000000e+00 0.000000000000e+00 0.000000000000e+00 0.000000000000e+00
7.490000000000e+02 0.000000000000e+00 4.500000000000e+00 0.000000000000e+00 0.000000000000e+00 0.000000000000e+00
7.500000000000e+02 0.000000000000e+00 4.500000000000e+00 0.000000000000e+00 0.000000000000e+00 0.000000000000e+00
7.490000000000e+02 0.000000000000e+00 5.500000000000e+00 0.000000000000e+00 0.000000000000e+00 0.000000000000e+00
7.500000000000e+02 0.000000000000e+00 5.500000000000e+00 0.000000000000e+00 0.000000000000e+00 0.000000000000e+00
7.490000000000e+02 0.000000000000e+00 6.500000000000e+00 0.000000000000e+00 0.000000000000e+00 0.000000000000e+00
7.500000000000e+02 0.000000000000e+00 6.500000000000e+00 0.000000000000e+00 0.000000000000e+00 0.000000000000e+00
7.490000000000e+02 0.000000000000e+00 7.500000000000e+00 0.000000000000e+00 0.000000000000e+00 0.000000000000e+00
7.500000000000e+02 0.000000000000e+00 7.500000000000e+00 0.000000000000e+00 0.000000000000e+00 0.000000000000e+00
7.490000000000e+02 0.000000000000e+00 8.500000000000e+00 0.000000000000e+00 0.000000000000e+00 0.000000000000e+00
7.500000000000e+02 0.000000000000e+00 8.500000000000e+00 0.000000000000e+00 0.000000000000e+00 0.000000000000e+00
7.490000000000e+02 0.000000000000e+00 9.500000000000e+00 0.000000000000e+00 0.000000000000e+00 0.000000000000e+00
7.500000000000e+02 0.000000000000e+00 9.500000000000e+00 0.000000000000e+00 0.000000000000e+00 0.000000000000e+00
7.490000000000e+02 0.000000000000e+00 1.050000000000e+01 0.000000000000e+00 0.000000000000e+00 0.000000000000e+00
7.500000000000e+02 0.000000000000e+00 1.050000000000e+01 0.000000000000e+00 0.000000000000e+00 0.000000000000e+00
7.490000000000e+02 0.000000000000e+00 1.150000000000e+01 0.000000000000e+00 0.000000000000e+00 0.000000000000e+00
7.500000000000e+02 0.000000000000e+00 1.150000000000e+01 0.000000000000e+00 0.000000000000e+00 0.000000000000e+00
7.490000000000e+02 0.000000000000e+00 1.250000000000e+01 0.000000000000e+00 0.000000000000e+00 0.000000000000e+00
7.500000000000e+02 0.000000000000e+00 1.250000000000e+01 0.000000000000e+00 0.000000000000e+00 0.000000000000e+00
7.490000000000e+02 0.000000000000e+00 1.350000000000e+01 0.000000000000e+00 0.000000000000e+00 0.000000000000e+00
7.500000000000e+02 0.000000000000e+00 1.350000000000e+01 0.000000000000e+00 0.000000000000e+00 0.000000000000e+00
7.490000000000e+02 0.000000000000e+00 1.450000000000e+01 0.000000000000e+00 0.000000000000e+00 0.000000000000e+00
7.500000000000e+02 0.000000000000e+00 1.450000000000e+01 0.000000000000e+00 0.000000000000e+00 0.000000000000e+00
7.490000000000e+02 0.000000000000e+00 1.550000000000e+01 0.000000000000e+00 0.000000000000e+00 0.000000000000e+00
7.500000000000e+02 0.000000000000e+00 1.550000000000e+01 0.000000000000e+00 0.000000000000e+00 0.000000000000e+00
7.490000000000e+02 0.000000000000e+00 1.650000000000e+01 0.000000000000e+00 0.000000000000e+00 0.000000000000e+00
7.500000000000e+02 0.000000000000e+00 1.650000000000e+01 0.000000000000e+00 0.000000000000e+00 0.000000000000e+00
7.490000000000e+02 0.000000000000e+00 1.750000000000e+01 0.000000000000e+00 0.000000000000e+00 0.000000000000e+00
7.500000000000e+02 0.000000000000e+00 1.750000000000e+01 0.000000000000e+00 0.000000000000e+00 0.000000000000e+00
7.490000000000e+02 0.000000000000e+00 1.850000000000e+01 0.000000000000e+00 0.000000000000e+00 0.000000000000e+00
7.500000000000e+02 0.000000000000e+00 1.850000000000e+01 0.000000000000e+00 0.000000000000e+00 0.000000000000e+00
7.490000000000e+02 0.000000000000e+00 1.950000000000e+01 0.000000000000e+00 0.000000000000e+00 0.000000000000e+00
7.500000000000e+02 0.000000000000e+00 1.950000000000e+01 0.000000000000e+00 0.000000000000e+00 0.000000000000e+00
7.490000000000e+02 0.000000000000e+00 2.050000000000e+01 0.000000000000e+00 0.000000000000e+00 0.000000000000e+00
7.500000000000e+02 0.000000000000e+00 2.050000000000e+01 0.000000000000e+00 0.000000000000e+00 0.000000000000e+00
7.490000000000e+02 0.000000000000e+00 2.150000000000e+01 0.000000000000e+00 0.000000000000e+00 0.000000000000e+00
7.500000000000e+02 0.000000000000e+00 2.150000000000e+01 0.000000000000e+00 0.000000000000e+00 0.000000000000e+00
7.490000000000e+02 0.000000000000e+00 2.250000000000e+01 0.000000000000e+00 0.000000000000e+00 0.000000000000e+00
7.500000000000e+02 0.000000000000e+00 2.250000000000e+01 0.000000000000e+00 0.000000000000e+00 0.000000000000e+00
7.490000000000e+02 0.000000000000e+00 2.350000000000e+01 0.000000000000e+00 0.000000000000e+00 0.000000000000e+00
7.500000000000e+02 0.000000000000e+00 2.350000000000e+01 0.000000000000e+00 0.000000000000e+00 0.000000000000e+00
7.490000000000e+02 0.000000000000e+00 2.450000000000e+01 0.000000000000e+00 0.000000000000e+00 0.000000000000e+00
7.500000000000e+02 0.000000000000e+00 2.450000000000e+01 0.000000000000e+00 0.000000000000e+00 0.000000000000e+00
7.490000000000e+02 0.000000000000e+00 2.550000000000e+01 0.000000000000e+00 0.000000000000e+00 0.000000000000e+00
7.500000000000e+02 0.000000000000e+00 2.550000000000e+01 0.000000000000e+00 0.000000000000e+00 0.000000000000e+00
7.490000000000e+02 0.000000000000e+00 2.650000000000e+01 0.000000000000e+00 0.000000000000e+00 0.000000000000e+00
7.500000000000e+02 0.000000000000e+00 2.650000000000e+01 0.000000000000e+00 0.000000000000e+00 0.000000000000e+00
7.490000000000e+02 0.000000000000e+00 2.750000000000e+01 0.000000000000e+00 0.000000000000e+00 0.000000000000e+00
7.500000000000e+02 0.000000000000e+00 2.750000000000e+01 0.000000000000e+00 0.000000000000e+00 0.000000000000e+00
7.490000000000e+02 0.000000000000e+00 2.850000000000e+01 0.000000000000e+00 0.000000000000e+00 0.000000000000e+00
7.500000000000e+02 0.000000000000e+00 2.850000000000e+01 0.000000000000e+00 0.000000000000e+00 0.000000000000e+00
7.490000000000e+02 0.000000000000e+00 2.950000000000e+01 0.000000000000e+00 0.000000000000e+00 0.000000000000e+00
7.500000000000e+02 0.000000000000e+00 2.950000000000e+01 0.000000000000e+00 0.000000000000e+00 0.000000000000e+00
VARIABLES = "X","Y","Z",VELOCITY1_X,VELOCITY1_Y,VELOCITY1_Z
ZONE T="1.797693134862e+308s", 
7.490000000000e+02 0.000000000000e+00 5.000000000000e-01 1.759844628817e-08 -1.165648519235e-11 0.000000000000e+00
7.500000000000e+02 0.000000000000e+00 5.000000000000e-01 1.762175602228e-08 -1.165447308470e-11 0.000000000000e+00
7.490000000000e+02 0.000000000000e+00 1.500000000000e+00 3.294617732275e-09 -2.549433292418e-11 0.000000000000e+00
7.500000000000e+02 0.000000000000e+00 1.500000000000e+00 3.298981583413e-09 -2.548991802584e-11 0.000000000000e+00
7.490000000000e+02 0.000000000000e+00 2.500000000000e+00 1.841642514612e-08 -3.987499064558e-11 0.000000000000e+00
7.500000000000e+02 0.000000000000e+00 2.500000000000e+00 1.844081891012e-08 -3.986809138525e-11 0.000000000000e+00
7.490000000000e+02 0.000000000000e+00 3.500000000000e+00 3.818610209253e-08 -7.736624639287e-11 0.000000000000e+00
7.500000000000e+02 0.000000000000e+00 3.500000000000e+00 3.823668237259e-08 -7.735288736260e-11 0.000000000000e+00
7.490000000000e+02 0.000000000000e+00 4.500000000000e+00 1.233616293142e-08 -1.108294254000e-10 0.000000000000e+00
7.500000000000e+02 0.000000000000e+00 4.500000000000e+00 1.235250320709e-08 -1.108102835414e-10 0.000000000000e+00
7.490000000000e+02 0.000000000000e+00 5.500000000000e+00 1.975505256272e-08 -1.320860671631e-10 0.000000000000e+00
7.500000000000e+02 0.000000000000e+00 5.500000000000e+00 1.978122038632e-08 -1.320632771382e-10 0.000000000000e+00
7.490000000000e+02 0.000000000000e+00 6.500000000000e+00 5.054796009125e-08 -1.786544968594e-10 0.000000000000e+00
7.500000000000e+02 0.000000000000e+00 6.500000000000e+00 5.061491778177e-08 -1.786237349934e-10 0.000000000000e+00
7.490000000000e+02 0.000000000000e+00 7.500000000000e+00 1.410423561043e-08 -2.214787593810e-10 0.000000000000e+00
7.500000000000e+02 0.000000000000e+00 7.500000000000e+00 1.412291885069e-08 -2.214406503741e-10 0.000000000000e+00
7.490000000000e+02 0.000000000000e+00 8.500000000000e+00 1.525321255668e-10 -2.309225701210e-10 0.000000000000e+00
7.500000000000e+02 0.000000000000e+00 8.500000000000e+00 1.527342781420e-10 -2.308828562013e-10 0.000000000000e+00
7.490000000000e+02 0.000000000000e+00 9.500000000000e+00 1.124286377193e-09 -2.317717637667e-10 0.000000000000e+00
7.500000000000e+02 0.000000000000e+00 9.500000000000e+00 1.125781872308e-09 -2.317319838986e-10 0.000000000000e+00
7.490000000000e+02 0.000000000000e+00 1.050000000000e+01 4.034707539740e-07 -5.010004302693e-10 0.000000000000e+00
7.500000000000e+02 0.000000000000e+00 1.050000000000e+01 4.040077030964e-07 -5.009426071742e-10 0.000000000000e+00
7.490000000000e+02 0.000000000000e+00 1.150000000000e+01 2.634121463612e-09 -7.711957323443e-10 0.000000000000e+00
7.500000000000e+02 0.000000000000e+00 1.150000000000e+01 2.637627207401e-09 -7.711203580264e-10 0.000000000000e+00
7.490000000000e+02 0.000000000000e+00 1.250000000000e+01 5.686585260120e-08 -8.108063990499e-10 0.000000000000e+00
7.500000000000e+02 0.000000000000e+00 1.250000000000e+01 5.694156625130e-08 -8.107288500324e-10 0.000000000000e+00
7.490000000000e+02 0.000000000000e+00 1.350000000000e+01 4.788024398926e-08 -8.805337952380e-10 0.000000000000e+00
7.500000000000e+02 0.000000000000e+00 1.350000000000e+01 4.794399528564e-08 -8.804524297433e-10 0.000000000000e+00
7.490000000000e+02 0.000000000000e+00 1.450000000000e+01 2.150835815568e-08 -9.267252997400e-10 0.000000000000e+00
7.500000000000e+02 0.000000000000e+00 1.450000000000e+01 2.153699686612e-08 -9.266414505703e-10 0.000000000000e+00
7.490000000000e+02 0.000000000000e+00 1.550000000000e+01 4.723849378606e-07 -1.255558805063e-09 0.000000000000e+00
7.500000000000e+02 0.000000000000e+00 1.550000000000e+01 4.730139611914e-07 -1.255457903621e-09 0.000000000000e+00
7.490000000000e+02 0.000000000000e+00 1.650000000000e+01 6.506396235683e-07 -2.003215443012e-09 0.000000000000e+00
7.500000000000e+02 0.000000000000e+00 1.650000000000e+01 6.515060125157e-07 -2.003075210881e-09 0.000000000000e+00
7.490000000000e+02 0.000000000000e+00 1.750000000000e+01 6.735933666798e-10 -2.436804565420e-09 0.000000000000e+00
7.500000000000e+02 0.000000000000e+00 1.750000000000e+01 6.744907299231e-10 -2.436641728314e-09 0.000000000000e+00
7.490000000000e+02 0.000000000000e+00 1.850000000000e+01 1.124003577917e-06 -3.188557484906e-09 0.000000000000e+00
7.500000000000e+02 0.000000000000e+00 1.850000000000e+01 1.125506318085e-06 -3.188429129112e-09 0.000000000000e+00
7.490000000000e+02 0.000000000000e+00 1.950000000000e+01 7.385093434248e-08 -3.989069519745e-09 0.000000000000e+00
7.500000000000e+02 0.000000000000e+00 1.950000000000e+01 7.394966999556e-08 -3.988977858990e-09 0.000000000000e+00
7.490000000000e+02 0.000000000000e+00 2.050000000000e+01 9.218775393488e-09 -4.044586880127e-09 0.000000000000e+00
7.500000000000e+02 0.000000000000e+00 2.050000000000e+01 9.231100947678e-09 -4.044497865363e-09 0.000000000000e+00
7.490000000000e+02 0.000000000000e+00 2.150000000000e+01 3.751407329474e-08 -4.075829242619e-09 0.000000000000e+00
7.500000000000e+02 0.000000000000e+00 2.150000000000e+01 3.756423708792e-08 -4.075741775881e-09 0.000000000000e+00
7.490000000000e+02 0.000000000000e+00 2.250000000000e+01 8.332216137108e-07 -4.657963232950e-09 0.000000000000e+00
7.500000000000e+02 0.000000000000e+00 2.250000000000e+01 8.343358335412e-07 -4.657905590820e-09 0.000000000000e+00
7.490000000000e+02 0.000000000000e+00 2.350000000000e+01 1.207296169107e-07 -5.295628880315e-09 0.000000000000e+00
7.500000000000e+02 0.000000000000e+00 2.350000000000e+01 1.208910619204e-07 -5.295604440582e-09 0.000000000000e+00
7.490000000000e+02 0.000000000000e+00 2.450000000000e+01 2.661535063462e-07 -5.554270913055e-09 0.000000000000e+00
7.500000000000e+02 0.000000000000e+00 2.450000000000e+01 2.665094197064e-07 -5.554259757417e-09 0.000000000000e+00
7.490000000000e+02 0.000000000000e+00 2.550000000000e+01 1.277861353897e-09 -5.733041857004e-09 0.000000000000e+00
7.500000000000e+02 0.000000000000e+00 2.550000000000e+01 1.279570177847e-09 -5.733039955417e-09 0.000000000000e+00
7.490000000000e+02 0.000000000000e+00 2.650000000000e+01 9.286705166990e-09 -5.740105023423e-09 0.000000000000e+00
7.500000000000e+02 0.000000000000e+00 2.650000000000e+01 9.299124144824e-09 -5.740103472176e-09 0.000000000000e+00
7.490000000000e+02 0.000000000000e+00 2.750000000000e+01 1.228493672460e-08 -5.754526089518e-09 0.000000000000e+00
7.500000000000e+02 0.000000000000e+00 2.750000000000e+01 1.230136522354e-08 -5.754525322967e-09 0.000000000000e+00
7.490000000000e+02 0.000000000000e+00 2.850000000000e+01 2.713730794042e-09 -5.764552598754e-09 0.000000000000e+00
7.500000000000e+02 0.000000000000e+00 2.850000000000e+01 2.717359832881e-09 -5.764552400711e-09 0.000000000000e+00
7.490000000000e+02 0.000000000000e+00 2.950000000000e+01 2.425788636455e-09 -5.767988651587e-09 0.000000000000e+00
7.500000000000e+02 0.000000000000e+00 2.950000000000e+01 2.429032614174e-09 -5.767988614087e-09 0.000000000000e+00
