 TITLE = "Profiles along polylines"
 VARIABLES = "DIST" "HEAD" "VELOCITY_X1" "VELOCITY_Y1" "VELOCITY_Z1" 
 ZONE T="TIME=0.000000000000e+00"
0.000000000000e+00 3.000000000000e+01 0.000000000000e+00 0.000000000000e+00 0.000000000000e+00 
1.000000000000e+00 3.000000000000e+01 0.000000000000e+00 0.000000000000e+00 0.000000000000e+00 
2.000000000000e+00 3.000000000000e+01 0.000000000000e+00 0.000000000000e+00 0.000000000000e+00 
3.000000000000e+00 3.000000000000e+01 0.000000000000e+00 0.000000000000e+00 0.000000000000e+00 
4.000000000000e+00 3.000000000000e+01 0.000000000000e+00 0.000000000000e+00 0.000000000000e+00 
5.000000000000e+00 3.000000000000e+01 0.000000000000e+00 0.000000000000e+00 0.000000000000e+00 
6.000000000000e+00 3.000000000000e+01 0.000000000000e+00 0.000000000000e+00 0.000000000000e+00 
7.000000000000e+00 3.000000000000e+01 0.000000000000e+00 0.000000000000e+00 0.000000000000e+00 
8.000000000000e+00 3.000000000000e+01 0.000000000000e+00 0.000000000000e+00 0.000000000000e+00 
9.000000000000e+00 3.000000000000e+01 0.000000000000e+00 0.000000000000e+00 0.000000000000e+00 
1.000000000000e+01 3.000000000000e+01 0.000000000000e+00 0.000000000000e+00 0.000000000000e+00 
1.100000000000e+01 3.000000000000e+01 0.000000000000e+00 0.000000000000e+00 0.000000000000e+00 
1.200000000000e+01 3.000000000000e+01 0.000000000000e+00 0.000000000000e+00 0.000000000000e+00 
1.300000000000e+01 3.000000000000e+01 0.000000000000e+00 0.000000000000e+00 0.000000000000e+00 
1.400000000000e+01 3.000000000000e+01 0.000000000000e+00 0.000000000000e+00 0.000000000000e+00 
1.500000000000e+01 3.000000000000e+01 0.000000000000e+00 0.000000000000e+00 0.000000000000e+00 
1.600000000000e+01 3.000000000000e+01 0.000000000000e+00 0.000000000000e+00 0.000000000000e+00 
1.700000000000e+01 3.000000000000e+01 0.000000000000e+00 0.000000000000e+00 0.000000000000e+00 
1.800000000000e+01 3.000000000000e+01 0.000000000000e+00 0.000000000000e+00 0.000000000000e+00 
1.900000000000e+01 3.000000000000e+01 0.000000000000e+00 0.000000000000e+00 0.000000000000e+00 
2.000000000000e+01 3.000000000000e+01 0.000000000000e+00 0.000000000000e+00 0.000000000000e+00 
2.100000000000e+01 3.000000000000e+01 0.000000000000e+00 0.000000000000e+00 0.000000000000e+00 
2.200000000000e+01 3.000000000000e+01 0.000000000000e+00 0.000000000000e+00 0.000000000000e+00 
2.300000000000e+01 3.000000000000e+01 0.000000000000e+00 0.000000000000e+00 0.000000000000e+00 
2.400000000000e+01 3.000000000000e+01 0.000000000000e+00 0.000000000000e+00 0.000000000000e+00 
2.500000000000e+01 3.000000000000e+01 0.000000000000e+00 0.000000000000e+00 0.000000000000e+00 
2.600000000000e+01 3.000000000000e+01 0.000000000000e+00 0.000000000000e+00 0.000000000000e+00 
2.700000000000e+01 3.000000000000e+01 0.000000000000e+00 0.000000000000e+00 0.000000000000e+00 
2.800000000000e+01 3.000000000000e+01 0.000000000000e+00 0.000000000000e+00 0.000000000000e+00 
2.900000000000e+01 3.000000000000e+01 0.000000000000e+00 0.000000000000e+00 0.000000000000e+00 
3.000000000000e+01 3.000000000000e+01 0.000000000000e+00 0.000000000000e+00 0.000000000000e+00 
 TITLE = "Profiles along polylines"
 VARIABLES = "DIST" "HEAD" "VELOCITY_X1" "VELOCITY_Y1" "VELOCITY_Z1" 
 ZONE T="TIME=1.797693134862e+308"
0.000000000000e+00 3.054915589388e+01 1.174453146500e-11 -1.174382589234e-11 0.000000000000e+00 
1.000000000000e+00 3.054915644657e+01 6.970995599714e-12 -1.871696986400e-11 0.000000000000e+00 
2.000000000000e+00 3.054916290470e+01 7.244326544457e-12 -3.293488267063e-11 0.000000000000e+00 
3.000000000000e+00 3.054916471165e+01 1.888640058939e-11 -5.906740249941e-11 0.000000000000e+00 
4.000000000000e+00 3.054916640243e+01 1.685674697833e-11 -9.481656334431e-11 0.000000000000e+00 
5.000000000000e+00 3.054917390023e+01 1.070754909372e-11 -1.223870106018e-10 0.000000000000e+00 
6.000000000000e+00 3.054917948023e+01 2.345771501093e-11 -1.565548286601e-10 0.000000000000e+00 
7.000000000000e+00 3.054918242974e+01 2.157102820507e-11 -2.015902174071e-10 0.000000000000e+00 
8.000000000000e+00 3.054919553448e+01 4.756532600696e-12 -2.279251938821e-10 0.000000000000e+00 
9.000000000000e+00 3.055045900861e+01 4.259425255995e-13 -2.331095164296e-10 0.000000000000e+00 
1.000000000000e+01 3.055063109229e+01 1.349669467146e-10 -3.684954135936e-10 0.000000000000e+00 
1.100000000000e+01 3.055063212606e+01 1.354599446864e-10 -6.389552768775e-10 0.000000000000e+00 
1.200000000000e+01 3.055087570478e+01 1.985013236703e-11 -7.943071042833e-10 0.000000000000e+00 
1.300000000000e+01 3.055088756650e+01 3.494906495244e-11 -8.491041439394e-10 0.000000000000e+00 
1.400000000000e+01 3.055090286365e+01 2.315637536222e-11 -9.071959770776e-10 0.000000000000e+00 
1.500000000000e+01 3.055093870027e+01 1.648555620254e-10 -1.095225604162e-09 0.000000000000e+00 
1.600000000000e+01 3.055094091033e+01 3.749716063719e-10 -1.634867002684e-09 0.000000000000e+00 
1.700000000000e+01 3.055094346932e+01 2.175519895717e-10 -2.226673030332e-09 0.000000000000e+00 
1.800000000000e+01 3.055394925892e+01 3.750807295504e-10 -2.818780411835e-09 0.000000000000e+00 
1.900000000000e+01 3.055395161366e+01 3.994526075188e-10 -3.593393577122e-09 0.000000000000e+00 
2.000000000000e+01 3.055399641958e+01 2.770055647519e-11 -4.020657140874e-09 0.000000000000e+00 
2.100000000000e+01 3.055436033920e+01 1.558451589262e-11 -4.063952286032e-09 0.000000000000e+00 
2.200000000000e+01 3.055445045880e+01 2.903765609943e-10 -4.369900175414e-09 0.000000000000e+00 
2.300000000000e+01 3.055445509384e+01 3.180988654549e-10 -4.978464640462e-09 0.000000000000e+00 
2.400000000000e+01 3.055449145120e+01 1.290120102448e-10 -5.425693550149e-09 0.000000000000e+00 
2.500000000000e+01 3.055450874673e+01 8.917455052359e-11 -5.643922303566e-09 0.000000000000e+00 
2.600000000000e+01 3.055822676304e+01 3.523038877605e-12 -5.736646745044e-09 0.000000000000e+00 
2.700000000000e+01 3.055873899584e+01 7.193445819189e-12 -5.747364063378e-09 0.000000000000e+00 
2.800000000000e+01 3.055912718503e+01 5.001312549921e-12 -5.759561125348e-09 0.000000000000e+00 
2.900000000000e+01 3.056088755558e+01 1.713810585611e-12 -5.766278061449e-09 0.000000000000e+00 
3.000000000000e+01 3.056285805416e+01 1.617751280844e-12 -5.767992152633e-09 0.000000000000e+00 
