 TITLE = "Profiles along polylines"
 VARIABLES = "DIST" "HEAD" "VELOCITY_X1" "VELOCITY_Y1" "VELOCITY_Z1" 
 ZONE T="TIME=0.000000000000e+00"
0.000000000000e+00 3.000000000000e+01 0.000000000000e+00 0.000000000000e+00 0.000000000000e+00 
1.000000000000e+00 3.000000000000e+01 0.000000000000e+00 0.000000000000e+00 0.000000000000e+00 
2.000000000000e+00 3.000000000000e+01 0.000000000000e+00 0.000000000000e+00 0.000000000000e+00 
3.000000000000e+00 3.000000000000e+01 0.000000000000e+00 0.000000000000e+00 0.000000000000e+00 
4.000000000000e+00 3.000000000000e+01 0.000000000000e+00 0.000000000000e+00 0.000000000000e+00 
5.000000000000e+00 3.000000000000e+01 0.000000000000e+00 0.000000000000e+00 0.000000000000e+00 
6.000000000000e+00 3.000000000000e+01 0.000000000000e+00 0.000000000000e+00 0.000000000000e+00 
7.000000000000e+00 3.000000000000e+01 0.000000000000e+00 0.000000000000e+00 0.000000000000e+00 
8.000000000000e+00 3.000000000000e+01 0.000000000000e+00 0.000000000000e+00 0.000000000000e+00 
9.000000000000e+00 3.000000000000e+01 0.000000000000e+00 0.000000000000e+00 0.000000000000e+00 
1.000000000000e+01 3.000000000000e+01 0.000000000000e+00 0.000000000000e+00 0.000000000000e+00 
1.100000000000e+01 3.000000000000e+01 0.000000000000e+00 0.000000000000e+00 0.000000000000e+00 
1.200000000000e+01 3.000000000000e+01 0.000000000000e+00 0.000000000000e+00 0.000000000000e+00 
1.300000000000e+01 3.000000000000e+01 0.000000000000e+00 0.000000000000e+00 0.000000000000e+00 
1.400000000000e+01 3.000000000000e+01 0.000000000000e+00 0.000000000000e+00 0.000000000000e+00 
1.500000000000e+01 3.000000000000e+01 0.000000000000e+00 0.000000000000e+00 0.000000000000e+00 
1.600000000000e+01 3.000000000000e+01 0.000000000000e+00 0.000000000000e+00 0.000000000000e+00 
1.700000000000e+01 3.000000000000e+01 0.000000000000e+00 0.000000000000e+00 0.000000000000e+00 
1.800000000000e+01 3.000000000000e+01 0.000000000000e+00 0.000000000000e+00 0.000000000000e+00 
1.900000000000e+01 3.000000000000e+01 0.000000000000e+00 0.000000000000e+00 0.000000000000e+00 
2.000000000000e+01 3.000000000000e+01 0.000000000000e+00 0.000000000000e+00 0.000000000000e+00 
2.100000000000e+01 3.000000000000e+01 0.000000000000e+00 0.000000000000e+00 0.000000000000e+00 
2.200000000000e+01 3.000000000000e+01 0.000000000000e+00 0.000000000000e+00 0.000000000000e+00 
2.300000000000e+01 3.000000000000e+01 0.000000000000e+00 0.000000000000e+00 0.000000000000e+00 
2.400000000000e+01 3.000000000000e+01 0.000000000000e+00 0.000000000000e+00 0.000000000000e+00 
2.500000000000e+01 3.000000000000e+01 0.000000000000e+00 0.000000000000e+00 0.000000000000e+00 
2.600000000000e+01 3.000000000000e+01 0.000000000000e+00 0.000000000000e+00 0.000000000000e+00 
2.700000000000e+01 3.000000000000e+01 0.000000000000e+00 0.000000000000e+00 0.000000000000e+00 
2.800000000000e+01 3.000000000000e+01 0.000000000000e+00 0.000000000000e+00 0.000000000000e+00 
2.900000000000e+01 3.000000000000e+01 0.000000000000e+00 0.000000000000e+00 0.000000000000e+00 
3.000000000000e+01 3.000000000000e+01 0.000000000000e+00 0.000000000000e+00 0.000000000000e+00 
 TITLE = "Profiles along polylines"
 VARIABLES = "DIST" "HEAD" "VELOCITY_X1" "VELOCITY_Y1" "VELOCITY_Z1" 
 ZONE T="TIME=1.797693134862e+308"
0.000000000000e+00 3.051461243382e+01 5.872001366509e-09 -1.174457076369e-11 0.000000000000e+00 
1.000000000000e+00 3.051461298654e+01 3.485651335643e-09 -1.871670754136e-11 0.000000000000e+00 
2.000000000000e+00 3.051461944436e+01 3.622112625476e-09 -3.293350824811e-11 0.000000000000e+00 
3.000000000000e+00 3.051462125124e+01 9.443150209784e-09 -5.906593975899e-11 0.000000000000e+00 
4.000000000000e+00 3.051462294199e+01 8.428761880927e-09 -9.481305543128e-11 0.000000000000e+00 
5.000000000000e+00 3.051463043942e+01 5.353854689406e-09 -1.223808925278e-10 0.000000000000e+00 
6.000000000000e+00 3.051463601914e+01 1.172880480800e-08 -1.565486104349e-10 0.000000000000e+00 
7.000000000000e+00 3.051463896855e+01 1.078606143081e-08 -2.015822889336e-10 0.000000000000e+00 
8.000000000000e+00 3.051465207270e+01 2.378484108874e-09 -2.279141953324e-10 0.000000000000e+00 
9.000000000000e+00 3.051591548216e+01 2.129635839250e-10 -2.330976054597e-10 0.000000000000e+00 
1.000000000000e+01 3.051608755706e+01 6.747937239979e-08 -3.684905951263e-10 0.000000000000e+00 
1.100000000000e+01 3.051608859084e+01 6.773117921874e-08 -6.389464388181e-10 0.000000000000e+00 
1.200000000000e+01 3.051633216328e+01 9.923279098196e-09 -7.942832757621e-10 0.000000000000e+00 
1.300000000000e+01 3.051634402459e+01 1.746930038363e-08 -8.490752483430e-10 0.000000000000e+00 
1.400000000000e+01 3.051635932123e+01 1.157244728213e-08 -9.071677529380e-10 0.000000000000e+00 
1.500000000000e+01 3.051639515683e+01 8.236983127559e-08 -1.095069498434e-09 0.000000000000e+00 
1.600000000000e+01 3.051639736639e+01 1.872941337972e-07 -1.634461939992e-09 0.000000000000e+00 
1.700000000000e+01 3.051639992471e+01 1.086237389926e-07 -2.226388872794e-09 0.000000000000e+00 
1.800000000000e+01 3.051940566015e+01 1.875245995545e-07 -2.818753270752e-09 0.000000000000e+00 
1.900000000000e+01 3.051940801488e+01 1.997258954534e-07 -3.593379832845e-09 0.000000000000e+00 
2.000000000000e+01 3.051945282060e+01 1.385073411339e-08 -4.020637114803e-09 0.000000000000e+00 
2.100000000000e+01 3.051981673817e+01 7.791991107027e-09 -4.063929754139e-09 0.000000000000e+00 
2.200000000000e+01 3.051990685729e+01 1.451813809206e-07 -4.369901146334e-09 0.000000000000e+00 
2.300000000000e+01 3.051991149235e+01 1.590562381486e-07 -4.978477540883e-09 0.000000000000e+00 
2.400000000000e+01 3.051994784972e+01 6.450661209613e-08 -5.425697042535e-09 0.000000000000e+00 
2.500000000000e+01 3.051996514526e+01 4.458992767248e-08 -5.643924658265e-09 0.000000000000e+00 
2.600000000000e+01 3.052368316114e+01 1.761471084548e-09 -5.736646206742e-09 0.000000000000e+00 
2.700000000000e+01 3.052419539391e+01 3.596722484655e-09 -5.747364068595e-09 0.000000000000e+00 
2.800000000000e+01 3.052458358312e+01 2.500785100901e-09 -5.759561335485e-09 0.000000000000e+00 
2.900000000000e+01 3.052634395368e+01 8.569316432824e-10 -5.766278072845e-09 0.000000000000e+00 
3.000000000000e+01 3.052831445226e+01 8.089219308395e-10 -5.767992168481e-09 0.000000000000e+00 
