VARIABLES = "X","Y","Z",VELOCITY1_X,VELOCITY1_Y,VELOCITY1_Z
ZONE T="0.000000000000e+00s", 
4.990000000000e+02 0.000000000000e+00 5.000000000000e-01 0.000000000000e+00 0.000000000000e+00 0.000000000000e+00
5.000000000000e+02 0.000000000000e+00 5.000000000000e-01 0.000000000000e+00 0.000000000000e+00 0.000000000000e+00
4.990000000000e+02 0.000000000000e+00 1.500000000000e+00 0.000000000000e+00 0.000000000000e+00 0.000000000000e+00
5.000000000000e+02 0.000000000000e+00 1.500000000000e+00 0.000000000000e+00 0.000000000000e+00 0.000000000000e+00
4.990000000000e+02 0.000000000000e+00 2.500000000000e+00 0.000000000000e+00 0.000000000000e+00 0.000000000000e+00
5.000000000000e+02 0.000000000000e+00 2.500000000000e+00 0.000000000000e+00 0.000000000000e+00 0.000000000000e+00
4.990000000000e+02 0.000000000000e+00 3.500000000000e+00 0.000000000000e+00 0.000000000000e+00 0.000000000000e+00
5.000000000000e+02 0.000000000000e+00 3.500000000000e+00 0.000000000000e+00 0.000000000000e+00 0.000000000000e+00
4.990000000000e+02 0.000000000000e+00 4.500000000000e+00 0.000000000000e+00 0.000000000000e+00 0.000000000000e+00
5.000000000000e+02 0.000000000000e+00 4.500000000000e+00 0.000000000000e+00 0.000000000000e+00 0.000000000000e+00
4.990000000000e+02 0.000000000000e+00 5.500000000000e+00 0.000000000000e+00 0.000000000000e+00 0.000000000000e+00
5.000000000000e+02 0.000000000000e+00 5.500000000000e+00 0.000000000000e+00 0.000000000000e+00 0.000000000000e+00
4.990000000000e+02 0.000000000000e+00 6.500000000000e+00 0.000000000000e+00 0.000000000000e+00 0.000000000000e+00
5.000000000000e+02 0.000000000000e+00 6.500000000000e+00 0.000000000000e+00 0.000000000000e+00 0.000000000000e+00
4.990000000000e+02 0.000000000000e+00 7.500000000000e+00 0.000000000000e+00 0.000000000000e+00 0.000000000000e+00
5.000000000000e+02 0.000000000000e+00 7.500000000000e+00 0.000000000000e+00 0.000000000000e+00 0.000000000000e+00
4.990000000000e+02 0.000000000000e+00 8.500000000000e+00 0.000000000000e+00 0.000000000000e+00 0.000000000000e+00
5.000000000000e+02 0.000000000000e+00 8.500000000000e+00 0.000000000000e+00 0.000000000000e+00 0.000000000000e+00
4.990000000000e+02 0.000000000000e+00 9.500000000000e+00 0.000000000000e+00 0.000000000000e+00 0.000000000000e+00
5.000000000000e+02 0.000000000000e+00 9.500000000000e+00 0.000000000000e+00 0.000000000000e+00 0.000000000000e+00
4.990000000000e+02 0.000000000000e+00 1.050000000000e+01 0.000000000000e+00 0.000000000000e+00 0.000000000000e+00
5.000000000000e+02 0.000000000000e+00 1.050000000000e+01 0.000000000000e+00 0.000000000000e+00 0.000000000000e+00
4.990000000000e+02 0.000000000000e+00 1.150000000000e+01 0.000000000000e+00 0.000000000000e+00 0.000000000000e+00
5.000000000000e+02 0.000000000000e+00 1.150000000000e+01 0.000000000000e+00 0.000000000000e+00 0.000000000000e+00
4.990000000000e+02 0.000000000000e+00 1.250000000000e+01 0.000000000000e+00 0.000000000000e+00 0.000000000000e+00
5.000000000000e+02 0.000000000000e+00 1.250000000000e+01 0.000000000000e+00 0.000000000000e+00 0.000000000000e+00
4.990000000000e+02 0.000000000000e+00 1.350000000000e+01 0.000000000000e+00 0.000000000000e+00 0.000000000000e+00
5.000000000000e+02 0.000000000000e+00 1.350000000000e+01 0.000000000000e+00 0.000000000000e+00 0.000000000000e+00
4.990000000000e+02 0.000000000000e+00 1.450000000000e+01 0.000000000000e+00 0.000000000000e+00 0.000000000000e+00
5.000000000000e+02 0.000000000000e+00 1.450000000000e+01 0.000000000000e+00 0.000000000000e+00 0.000000000000e+00
4.990000000000e+02 0.000000000000e+00 1.550000000000e+01 0.000000000000e+00 0.000000000000e+00 0.000000000000e+00
5.000000000000e+02 0.000000000000e+00 1.550000000000e+01 0.000000000000e+00 0.000000000000e+00 0.000000000000e+00
4.990000000000e+02 0.000000000000e+00 1.650000000000e+01 0.000000000000e+00 0.000000000000e+00 0.000000000000e+00
5.000000000000e+02 0.000000000000e+00 1.650000000000e+01 0.000000000000e+00 0.000000000000e+00 0.000000000000e+00
4.990000000000e+02 0.000000000000e+00 1.750000000000e+01 0.000000000000e+00 0.000000000000e+00 0.000000000000e+00
5.000000000000e+02 0.000000000000e+00 1.750000000000e+01 0.000000000000e+00 0.000000000000e+00 0.000000000000e+00
4.990000000000e+02 0.000000000000e+00 1.850000000000e+01 0.000000000000e+00 0.000000000000e+00 0.000000000000e+00
5.000000000000e+02 0.000000000000e+00 1.850000000000e+01 0.000000000000e+00 0.000000000000e+00 0.000000000000e+00
4.990000000000e+02 0.000000000000e+00 1.950000000000e+01 0.000000000000e+00 0.000000000000e+00 0.000000000000e+00
5.000000000000e+02 0.000000000000e+00 1.950000000000e+01 0.000000000000e+00 0.000000000000e+00 0.000000000000e+00
4.990000000000e+02 0.000000000000e+00 2.050000000000e+01 0.000000000000e+00 0.000000000000e+00 0.000000000000e+00
5.000000000000e+02 0.000000000000e+00 2.050000000000e+01 0.000000000000e+00 0.000000000000e+00 0.000000000000e+00
4.990000000000e+02 0.000000000000e+00 2.150000000000e+01 0.000000000000e+00 0.000000000000e+00 0.000000000000e+00
5.000000000000e+02 0.000000000000e+00 2.150000000000e+01 0.000000000000e+00 0.000000000000e+00 0.000000000000e+00
4.990000000000e+02 0.000000000000e+00 2.250000000000e+01 0.000000000000e+00 0.000000000000e+00 0.000000000000e+00
5.000000000000e+02 0.000000000000e+00 2.250000000000e+01 0.000000000000e+00 0.000000000000e+00 0.000000000000e+00
4.990000000000e+02 0.000000000000e+00 2.350000000000e+01 0.000000000000e+00 0.000000000000e+00 0.000000000000e+00
5.000000000000e+02 0.000000000000e+00 2.350000000000e+01 0.000000000000e+00 0.000000000000e+00 0.000000000000e+00
4.990000000000e+02 0.000000000000e+00 2.450000000000e+01 0.000000000000e+00 0.000000000000e+00 0.000000000000e+00
5.000000000000e+02 0.000000000000e+00 2.450000000000e+01 0.000000000000e+00 0.000000000000e+00 0.000000000000e+00
4.990000000000e+02 0.000000000000e+00 2.550000000000e+01 0.000000000000e+00 0.000000000000e+00 0.000000000000e+00
5.000000000000e+02 0.000000000000e+00 2.550000000000e+01 0.000000000000e+00 0.000000000000e+00 0.000000000000e+00
4.990000000000e+02 0.000000000000e+00 2.650000000000e+01 0.000000000000e+00 0.000000000000e+00 0.000000000000e+00
5.000000000000e+02 0.000000000000e+00 2.650000000000e+01 0.000000000000e+00 0.000000000000e+00 0.000000000000e+00
4.990000000000e+02 0.000000000000e+00 2.750000000000e+01 0.000000000000e+00 0.000000000000e+00 0.000000000000e+00
5.000000000000e+02 0.000000000000e+00 2.750000000000e+01 0.000000000000e+00 0.000000000000e+00 0.000000000000e+00
4.990000000000e+02 0.000000000000e+00 2.850000000000e+01 0.000000000000e+00 0.000000000000e+00 0.000000000000e+00
5.000000000000e+02 0.000000000000e+00 2.850000000000e+01 0.000000000000e+00 0.000000000000e+00 0.000000000000e+00
4.990000000000e+02 0.000000000000e+00 2.950000000000e+01 0.000000000000e+00 0.000000000000e+00 0.000000000000e+00
5.000000000000e+02 0.000000000000e+00 2.950000000000e+01 0.000000000000e+00 0.000000000000e+00 0.000000000000e+00
VARIABLES = "X","Y","Z",VELOCITY1_X,VELOCITY1_Y,VELOCITY1_Z
ZONE T="1.797693134862e+308s", 
4.990000000000e+02 0.000000000000e+00 5.000000000000e-01 1.173322328830e-08 -1.174605183842e-11 0.000000000000e+00
5.000000000000e+02 0.000000000000e+00 5.000000000000e-01 1.175671632139e-08 -1.174604481786e-11 0.000000000000e+00
4.990000000000e+02 0.000000000000e+00 1.500000000000e+00 2.196584583223e-09 -2.568900441319e-11 0.000000000000e+00
5.000000000000e+02 0.000000000000e+00 1.500000000000e+00 2.200982731060e-09 -2.568899528359e-11 0.000000000000e+00
4.990000000000e+02 0.000000000000e+00 2.500000000000e+00 1.227856744353e-08 -4.017962465967e-11 0.000000000000e+00
5.000000000000e+02 0.000000000000e+00 2.500000000000e+00 1.230315241578e-08 -4.017960743798e-11 0.000000000000e+00
4.990000000000e+02 0.000000000000e+00 3.500000000000e+00 2.545936320301e-08 -7.795653187614e-11 0.000000000000e+00
5.000000000000e+02 0.000000000000e+00 3.500000000000e+00 2.551033964255e-08 -7.795649567591e-11 0.000000000000e+00
4.990000000000e+02 0.000000000000e+00 4.500000000000e+00 8.224738423577e-09 -1.116732399745e-10 0.000000000000e+00
5.000000000000e+02 0.000000000000e+00 4.500000000000e+00 8.241206547632e-09 -1.116732009748e-10 0.000000000000e+00
4.990000000000e+02 0.000000000000e+00 5.500000000000e+00 1.317102386727e-08 -1.330913259001e-10 0.000000000000e+00
5.000000000000e+02 0.000000000000e+00 5.500000000000e+00 1.319739577065e-08 -1.330912818350e-10 0.000000000000e+00
4.990000000000e+02 0.000000000000e+00 6.500000000000e+00 3.370113359300e-08 -1.800127779120e-10 0.000000000000e+00
5.000000000000e+02 0.000000000000e+00 6.500000000000e+00 3.376861227344e-08 -1.800127035399e-10 0.000000000000e+00
4.990000000000e+02 0.000000000000e+00 7.500000000000e+00 9.403511607185e-09 -2.231592796970e-10 0.000000000000e+00
5.000000000000e+02 0.000000000000e+00 7.500000000000e+00 9.422339954700e-09 -2.231592105445e-10 0.000000000000e+00
4.990000000000e+02 0.000000000000e+00 8.500000000000e+00 1.016923111272e-10 -2.326738208106e-10 0.000000000000e+00
5.000000000000e+02 0.000000000000e+00 8.500000000000e+00 1.018959265605e-10 -2.326737529938e-10 0.000000000000e+00
4.990000000000e+02 0.000000000000e+00 9.500000000000e+00 7.493801863556e-10 -2.335258364827e-10 0.000000000000e+00
5.000000000000e+02 0.000000000000e+00 9.500000000000e+00 7.508806573355e-10 -2.335257696628e-10 0.000000000000e+00
4.990000000000e+02 0.000000000000e+00 1.050000000000e+01 2.689203974147e-07 -5.034960729776e-10 0.000000000000e+00
5.000000000000e+02 0.000000000000e+00 1.050000000000e+01 2.694588535754e-07 -5.034957874955e-10 0.000000000000e+00
4.990000000000e+02 0.000000000000e+00 1.150000000000e+01 1.755682712005e-09 -7.744420313795e-10 0.000000000000e+00
5.000000000000e+02 0.000000000000e+00 1.150000000000e+01 1.759198095941e-09 -7.744419312535e-10 0.000000000000e+00
4.990000000000e+02 0.000000000000e+00 1.250000000000e+01 3.790100688668e-08 -8.141428556728e-10 0.000000000000e+00
5.000000000000e+02 0.000000000000e+00 1.250000000000e+01 3.797689587161e-08 -8.141426944883e-10 0.000000000000e+00
4.990000000000e+02 0.000000000000e+00 1.350000000000e+01 3.191206752762e-08 -8.840284817424e-10 0.000000000000e+00
5.000000000000e+02 0.000000000000e+00 1.350000000000e+01 3.197596486548e-08 -8.840283643007e-10 0.000000000000e+00
4.990000000000e+02 0.000000000000e+00 1.450000000000e+01 1.433524122764e-08 -9.303235931929e-10 0.000000000000e+00
5.000000000000e+02 0.000000000000e+00 1.450000000000e+01 1.436394460001e-08 -9.303234724628e-10 0.000000000000e+00
4.990000000000e+02 0.000000000000e+00 1.550000000000e+01 3.148417239770e-07 -1.259867241142e-09 0.000000000000e+00
5.000000000000e+02 0.000000000000e+00 1.550000000000e+01 3.154721298084e-07 -1.259866987936e-09 0.000000000000e+00
4.990000000000e+02 0.000000000000e+00 1.650000000000e+01 4.336473092936e-07 -2.009145405118e-09 0.000000000000e+00
5.000000000000e+02 0.000000000000e+00 1.650000000000e+01 4.345155991199e-07 -2.009144958715e-09 0.000000000000e+00
4.990000000000e+02 0.000000000000e+00 1.750000000000e+01 4.489335722880e-10 -2.443678583037e-09 0.000000000000e+00
5.000000000000e+02 0.000000000000e+00 1.750000000000e+01 4.498324708006e-10 -2.443678416104e-09 0.000000000000e+00
4.990000000000e+02 0.000000000000e+00 1.850000000000e+01 7.489610170169e-07 -3.193938381233e-09 0.000000000000e+00
5.000000000000e+02 0.000000000000e+00 1.850000000000e+01 7.504606741231e-07 -3.193938771548e-09 0.000000000000e+00
4.990000000000e+02 0.000000000000e+00 1.950000000000e+01 4.920932524037e-08 -3.992936120249e-09 0.000000000000e+00
5.000000000000e+02 0.000000000000e+00 1.950000000000e+01 4.930785781676e-08 -3.992935603865e-09 0.000000000000e+00
4.990000000000e+02 0.000000000000e+00 2.050000000000e+01 6.142762276043e-09 -4.048346052532e-09 0.000000000000e+00
5.000000000000e+02 0.000000000000e+00 2.050000000000e+01 6.155062017147e-09 -4.048345651743e-09 0.000000000000e+00
4.990000000000e+02 0.000000000000e+00 2.150000000000e+01 2.499659755671e-08 -4.079520518577e-09 0.000000000000e+00
5.000000000000e+02 0.000000000000e+00 2.150000000000e+01 2.504664862836e-08 -4.079520111530e-09 0.000000000000e+00
4.990000000000e+02 0.000000000000e+00 2.250000000000e+01 5.551959754832e-07 -4.660366585068e-09 0.000000000000e+00
5.000000000000e+02 0.000000000000e+00 2.250000000000e+01 5.563076524592e-07 -4.660366063549e-09 0.000000000000e+00
4.990000000000e+02 0.000000000000e+00 2.350000000000e+01 8.044509499195e-08 -5.296665094471e-09 0.000000000000e+00
5.000000000000e+02 0.000000000000e+00 2.350000000000e+01 8.060617137594e-08 -5.296664972842e-09 0.000000000000e+00
4.990000000000e+02 0.000000000000e+00 2.450000000000e+01 1.773445550685e-07 -5.554738501642e-09 0.000000000000e+00
5.000000000000e+02 0.000000000000e+00 2.450000000000e+01 1.776996544996e-07 -5.554738509629e-09 0.000000000000e+00
4.990000000000e+02 0.000000000000e+00 2.550000000000e+01 8.514699273275e-10 -5.733122682035e-09 0.000000000000e+00
5.000000000000e+02 0.000000000000e+00 2.550000000000e+01 8.531748374719e-10 -5.733122689157e-09 0.000000000000e+00
4.990000000000e+02 0.000000000000e+00 2.650000000000e+01 6.187947956884e-09 -5.740170061558e-09 0.000000000000e+00
5.000000000000e+02 0.000000000000e+00 2.650000000000e+01 6.200338181528e-09 -5.740170065778e-09 0.000000000000e+00
4.990000000000e+02 0.000000000000e+00 2.750000000000e+01 8.185738206014e-09 -5.754559416179e-09 0.000000000000e+00
5.000000000000e+02 0.000000000000e+00 2.750000000000e+01 8.202128662928e-09 -5.754559377206e-09 0.000000000000e+00
4.990000000000e+02 0.000000000000e+00 2.850000000000e+01 1.808221648830e-09 -5.764563877550e-09 0.000000000000e+00
5.000000000000e+02 0.000000000000e+00 2.850000000000e+01 1.811842288791e-09 -5.764563860902e-09 0.000000000000e+00
4.990000000000e+02 0.000000000000e+00 2.950000000000e+01 1.616359030571e-09 -5.767992211482e-09 0.000000000000e+00
5.000000000000e+02 0.000000000000e+00 2.950000000000e+01 1.619595499203e-09 -5.767992201509e-09 0.000000000000e+00
