 TITLE = "Profiles along polylines"
 VARIABLES = "DIST" "HEAD" "VELOCITY_X1" "VELOCITY_Y1" "VELOCITY_Z1" 
 ZONE T="TIME=0.000000000000e+00"
0.000000000000e+00 3.000000000000e+01 0.000000000000e+00 0.000000000000e+00 0.000000000000e+00 
1.000000000000e+00 3.000000000000e+01 0.000000000000e+00 0.000000000000e+00 0.000000000000e+00 
2.000000000000e+00 3.000000000000e+01 0.000000000000e+00 0.000000000000e+00 0.000000000000e+00 
3.000000000000e+00 3.000000000000e+01 0.000000000000e+00 0.000000000000e+00 0.000000000000e+00 
4.000000000000e+00 3.000000000000e+01 0.000000000000e+00 0.000000000000e+00 0.000000000000e+00 
5.000000000000e+00 3.000000000000e+01 0.000000000000e+00 0.000000000000e+00 0.000000000000e+00 
6.000000000000e+00 3.000000000000e+01 0.000000000000e+00 0.000000000000e+00 0.000000000000e+00 
7.000000000000e+00 3.000000000000e+01 0.000000000000e+00 0.000000000000e+00 0.000000000000e+00 
8.000000000000e+00 3.000000000000e+01 0.000000000000e+00 0.000000000000e+00 0.000000000000e+00 
9.000000000000e+00 3.000000000000e+01 0.000000000000e+00 0.000000000000e+00 0.000000000000e+00 
1.000000000000e+01 3.000000000000e+01 0.000000000000e+00 0.000000000000e+00 0.000000000000e+00 
1.100000000000e+01 3.000000000000e+01 0.000000000000e+00 0.000000000000e+00 0.000000000000e+00 
1.200000000000e+01 3.000000000000e+01 0.000000000000e+00 0.000000000000e+00 0.000000000000e+00 
1.300000000000e+01 3.000000000000e+01 0.000000000000e+00 0.000000000000e+00 0.000000000000e+00 
1.400000000000e+01 3.000000000000e+01 0.000000000000e+00 0.000000000000e+00 0.000000000000e+00 
1.500000000000e+01 3.000000000000e+01 0.000000000000e+00 0.000000000000e+00 0.000000000000e+00 
1.600000000000e+01 3.000000000000e+01 0.000000000000e+00 0.000000000000e+00 0.000000000000e+00 
1.700000000000e+01 3.000000000000e+01 0.000000000000e+00 0.000000000000e+00 0.000000000000e+00 
1.800000000000e+01 3.000000000000e+01 0.000000000000e+00 0.000000000000e+00 0.000000000000e+00 
1.900000000000e+01 3.000000000000e+01 0.000000000000e+00 0.000000000000e+00 0.000000000000e+00 
2.000000000000e+01 3.000000000000e+01 0.000000000000e+00 0.000000000000e+00 0.000000000000e+00 
2.100000000000e+01 3.000000000000e+01 0.000000000000e+00 0.000000000000e+00 0.000000000000e+00 
2.200000000000e+01 3.000000000000e+01 0.000000000000e+00 0.000000000000e+00 0.000000000000e+00 
2.300000000000e+01 3.000000000000e+01 0.000000000000e+00 0.000000000000e+00 0.000000000000e+00 
2.400000000000e+01 3.000000000000e+01 0.000000000000e+00 0.000000000000e+00 0.000000000000e+00 
2.500000000000e+01 3.000000000000e+01 0.000000000000e+00 0.000000000000e+00 0.000000000000e+00 
2.600000000000e+01 3.000000000000e+01 0.000000000000e+00 0.000000000000e+00 0.000000000000e+00 
2.700000000000e+01 3.000000000000e+01 0.000000000000e+00 0.000000000000e+00 0.000000000000e+00 
2.800000000000e+01 3.000000000000e+01 0.000000000000e+00 0.000000000000e+00 0.000000000000e+00 
2.900000000000e+01 3.000000000000e+01 0.000000000000e+00 0.000000000000e+00 0.000000000000e+00 
3.000000000000e+01 3.000000000000e+01 0.000000000000e+00 0.000000000000e+00 0.000000000000e+00 
 TITLE = "Profiles along polylines"
 VARIABLES = "DIST" "HEAD" "VELOCITY_X1" "VELOCITY_Y1" "VELOCITY_Z1" 
 ZONE T="TIME=1.797693134862e+308"
0.000000000000e+00 3.023806159520e+01 1.842301669407e-08 -1.215414019352e-11 0.000000000000e+00 
1.000000000000e+00 3.023806214179e+01 2.831139004310e-08 -3.083211143373e-11 0.000000000000e+00 
2.000000000000e+00 3.023806321562e+01 1.973866668930e-08 -6.253253419198e-11 0.000000000000e+00 
3.000000000000e+00 3.023811221416e+01 2.368392072570e-07 -2.318313327965e-10 0.000000000000e+00 
4.000000000000e+00 3.023811289485e+01 2.375570220669e-07 -5.448611491233e-10 0.000000000000e+00 
5.000000000000e+00 3.023832715246e+01 4.178981809937e-07 -9.775633201164e-10 0.000000000000e+00 
6.000000000000e+00 3.023832839918e+01 4.181896851090e-07 -1.529658731612e-09 0.000000000000e+00 
7.000000000000e+00 3.023878235308e+01 2.034310190430e-07 -1.940335312292e-09 0.000000000000e+00 
8.000000000000e+00 3.023878661353e+01 7.637618007248e-07 -2.579953211585e-09 0.000000000000e+00 
9.000000000000e+00 3.023878888806e+01 6.223406196427e-07 -3.496610948419e-09 0.000000000000e+00 
1.000000000000e+01 3.023881571458e+01 6.650407760263e-08 -3.952164828859e-09 0.000000000000e+00 
1.100000000000e+01 3.023908528555e+01 1.689960417356e-08 -4.007334724771e-09 0.000000000000e+00 
1.200000000000e+01 3.023924007817e+01 1.781402695609e-08 -4.030316778468e-09 0.000000000000e+00 
1.300000000000e+01 3.023947743795e+01 1.694126381405e-08 -4.053339250998e-09 0.000000000000e+00 
1.400000000000e+01 3.023964784334e+01 1.452864987146e-08 -4.074197585035e-09 0.000000000000e+00 
1.500000000000e+01 3.024001227011e+01 2.340542427898e-08 -4.099363509566e-09 0.000000000000e+00 
1.600000000000e+01 3.024010317084e+01 2.493462881818e-08 -4.131450173229e-09 0.000000000000e+00 
1.700000000000e+01 3.024038165834e+01 3.012693287914e-08 -4.168019045194e-09 0.000000000000e+00 
1.800000000000e+01 3.024045412603e+01 2.451626105340e-08 -4.204326532236e-09 0.000000000000e+00 
1.900000000000e+01 3.024356414386e+01 9.000742300301e-10 -4.221221478163e-09 0.000000000000e+00 
2.000000000000e+01 3.024875701141e+01 2.567919925674e-08 -4.239291354674e-09 0.000000000000e+00 
2.100000000000e+01 3.024882675803e+01 2.666219706696e-08 -4.274894323275e-09 0.000000000000e+00 
2.200000000000e+01 3.025017698581e+01 3.833417742388e-08 -4.319201781895e-09 0.000000000000e+00 
2.300000000000e+01 3.025022574639e+01 3.631921628852e-07 -4.593352754382e-09 0.000000000000e+00 
2.400000000000e+01 3.025023191117e+01 3.546866025627e-07 -5.083482112886e-09 0.000000000000e+00 
2.500000000000e+01 3.025030950183e+01 3.733375455899e-08 -5.351121968319e-09 0.000000000000e+00 
2.600000000000e+01 3.025056253655e+01 1.004137411407e-08 -5.383469768432e-09 0.000000000000e+00 
2.700000000000e+01 3.025240401476e+01 1.346224303559e-07 -5.482357746266e-09 0.000000000000e+00 
2.800000000000e+01 3.025242137152e+01 1.334830796273e-07 -5.665626043103e-09 0.000000000000e+00 
2.900000000000e+01 3.028368120032e+01 4.697563387542e-09 -5.760076776242e-09 0.000000000000e+00 
3.000000000000e+01 3.028419927936e+01 9.242128163062e-09 -5.763289895903e-09 0.000000000000e+00 
