 TITLE = "Profiles along polylines"
 VARIABLES = "DIST" "HEAD" "VELOCITY_X1" "VELOCITY_Y1" "VELOCITY_Z1" 
 ZONE T="TIME=0.000000000000e+00"
0.000000000000e+00 3.000000000000e+01 0.000000000000e+00 0.000000000000e+00 0.000000000000e+00 
1.000000000000e+00 3.000000000000e+01 0.000000000000e+00 0.000000000000e+00 0.000000000000e+00 
2.000000000000e+00 3.000000000000e+01 0.000000000000e+00 0.000000000000e+00 0.000000000000e+00 
3.000000000000e+00 3.000000000000e+01 0.000000000000e+00 0.000000000000e+00 0.000000000000e+00 
4.000000000000e+00 3.000000000000e+01 0.000000000000e+00 0.000000000000e+00 0.000000000000e+00 
5.000000000000e+00 3.000000000000e+01 0.000000000000e+00 0.000000000000e+00 0.000000000000e+00 
6.000000000000e+00 3.000000000000e+01 0.000000000000e+00 0.000000000000e+00 0.000000000000e+00 
7.000000000000e+00 3.000000000000e+01 0.000000000000e+00 0.000000000000e+00 0.000000000000e+00 
8.000000000000e+00 3.000000000000e+01 0.000000000000e+00 0.000000000000e+00 0.000000000000e+00 
9.000000000000e+00 3.000000000000e+01 0.000000000000e+00 0.000000000000e+00 0.000000000000e+00 
1.000000000000e+01 3.000000000000e+01 0.000000000000e+00 0.000000000000e+00 0.000000000000e+00 
1.100000000000e+01 3.000000000000e+01 0.000000000000e+00 0.000000000000e+00 0.000000000000e+00 
1.200000000000e+01 3.000000000000e+01 0.000000000000e+00 0.000000000000e+00 0.000000000000e+00 
1.300000000000e+01 3.000000000000e+01 0.000000000000e+00 0.000000000000e+00 0.000000000000e+00 
1.400000000000e+01 3.000000000000e+01 0.000000000000e+00 0.000000000000e+00 0.000000000000e+00 
1.500000000000e+01 3.000000000000e+01 0.000000000000e+00 0.000000000000e+00 0.000000000000e+00 
1.600000000000e+01 3.000000000000e+01 0.000000000000e+00 0.000000000000e+00 0.000000000000e+00 
1.700000000000e+01 3.000000000000e+01 0.000000000000e+00 0.000000000000e+00 0.000000000000e+00 
1.800000000000e+01 3.000000000000e+01 0.000000000000e+00 0.000000000000e+00 0.000000000000e+00 
1.900000000000e+01 3.000000000000e+01 0.000000000000e+00 0.000000000000e+00 0.000000000000e+00 
2.000000000000e+01 3.000000000000e+01 0.000000000000e+00 0.000000000000e+00 0.000000000000e+00 
2.100000000000e+01 3.000000000000e+01 0.000000000000e+00 0.000000000000e+00 0.000000000000e+00 
2.200000000000e+01 3.000000000000e+01 0.000000000000e+00 0.000000000000e+00 0.000000000000e+00 
2.300000000000e+01 3.000000000000e+01 0.000000000000e+00 0.000000000000e+00 0.000000000000e+00 
2.400000000000e+01 3.000000000000e+01 0.000000000000e+00 0.000000000000e+00 0.000000000000e+00 
2.500000000000e+01 3.000000000000e+01 0.000000000000e+00 0.000000000000e+00 0.000000000000e+00 
2.600000000000e+01 3.000000000000e+01 0.000000000000e+00 0.000000000000e+00 0.000000000000e+00 
2.700000000000e+01 3.000000000000e+01 0.000000000000e+00 0.000000000000e+00 0.000000000000e+00 
2.800000000000e+01 3.000000000000e+01 0.000000000000e+00 0.000000000000e+00 0.000000000000e+00 
2.900000000000e+01 3.000000000000e+01 0.000000000000e+00 0.000000000000e+00 0.000000000000e+00 
3.000000000000e+01 3.000000000000e+01 0.000000000000e+00 0.000000000000e+00 0.000000000000e+00 
 TITLE = "Profiles along polylines"
 VARIABLES = "DIST" "HEAD" "VELOCITY_X1" "VELOCITY_Y1" "VELOCITY_Z1" 
 ZONE T="TIME=1.797693134862e+308"
0.000000000000e+00 3.054895144467e+01 1.229027203884e-11 -1.228998547655e-11 0.000000000000e+00 
1.000000000000e+00 3.054895199738e+01 1.888629211404e-11 -3.117769005772e-11 0.000000000000e+00 
2.000000000000e+00 3.054895308325e+01 1.316642535147e-11 -6.323716997262e-11 0.000000000000e+00 
3.000000000000e+00 3.054900263559e+01 1.579971266366e-10 -2.343950020070e-10 0.000000000000e+00 
4.000000000000e+00 3.054900332377e+01 1.584590223368e-10 -5.509007886514e-10 0.000000000000e+00 
5.000000000000e+00 3.054921996514e+01 2.787658032863e-10 -9.881659512131e-10 0.000000000000e+00 
6.000000000000e+00 3.054922122519e+01 2.789287503372e-10 -1.545953210147e-09 0.000000000000e+00 
7.000000000000e+00 3.054968000308e+01 1.356696866218e-10 -1.960655707631e-09 0.000000000000e+00 
8.000000000000e+00 3.054968430758e+01 5.093028322070e-10 -2.605675939164e-09 0.000000000000e+00 
9.000000000000e+00 3.054968660422e+01 4.149221491401e-10 -3.530330122165e-09 0.000000000000e+00 
1.000000000000e+01 3.054971368776e+01 4.433564677530e-11 -3.990009265662e-09 0.000000000000e+00 
1.100000000000e+01 3.054998583863e+01 1.126961187311e-11 -4.045663816985e-09 0.000000000000e+00 
1.200000000000e+01 3.055014211094e+01 1.187956207360e-11 -4.068815012133e-09 0.000000000000e+00 
1.300000000000e+01 3.055038173638e+01 1.129734142180e-11 -4.091994740461e-09 0.000000000000e+00 
1.400000000000e+01 3.055055376542e+01 9.687996902266e-12 -4.112983271998e-09 0.000000000000e+00 
1.500000000000e+01 3.055092165844e+01 1.560669860499e-11 -4.138280309594e-09 0.000000000000e+00 
1.600000000000e+01 3.055101342049e+01 1.662505738734e-11 -4.170516949632e-09 0.000000000000e+00 
1.700000000000e+01 3.055129453599e+01 2.008676075062e-11 -4.207233953734e-09 0.000000000000e+00 
1.800000000000e+01 3.055136768348e+01 1.634432894817e-11 -4.243671723054e-09 0.000000000000e+00 
1.900000000000e+01 3.055450673665e+01 5.996607823850e-13 -4.260621905094e-09 0.000000000000e+00 
2.000000000000e+01 3.055974806256e+01 1.709111009606e-11 -4.278311402652e-09 0.000000000000e+00 
2.100000000000e+01 3.055981844235e+01 1.774273693539e-11 -4.313152316890e-09 0.000000000000e+00 
2.200000000000e+01 3.056118058173e+01 2.550595788029e-11 -4.356410098552e-09 0.000000000000e+00 
2.300000000000e+01 3.056122975238e+01 2.416505852271e-10 -4.623559257326e-09 0.000000000000e+00 
2.400000000000e+01 3.056123594755e+01 2.359610981332e-10 -5.101278853637e-09 0.000000000000e+00 
2.500000000000e+01 3.056131370902e+01 2.483585809944e-11 -5.362205515721e-09 0.000000000000e+00 
2.600000000000e+01 3.056156723521e+01 6.680223475278e-12 -5.393736853666e-09 0.000000000000e+00 
2.700000000000e+01 3.056341216091e+01 8.956367908961e-11 -5.489973321400e-09 0.000000000000e+00 
2.800000000000e+01 3.056342953367e+01 8.879213424782e-11 -5.668368941077e-09 0.000000000000e+00 
2.900000000000e+01 3.059469124163e+01 3.125123427143e-12 -5.760334582843e-09 0.000000000000e+00 
3.000000000000e+01 3.059520933591e+01 6.147555266573e-12 -5.763459440770e-09 0.000000000000e+00 
