 TITLE = "Profiles along polylines"
 VARIABLES = "DIST" "HEAD" "VELOCITY_X1" "VELOCITY_Y1" "VELOCITY_Z1" 
 ZONE T="TIME=0.000000000000e+00"
0.000000000000e+00 3.000000000000e+01 0.000000000000e+00 0.000000000000e+00 0.000000000000e+00 
1.000000000000e+00 3.000000000000e+01 0.000000000000e+00 0.000000000000e+00 0.000000000000e+00 
2.000000000000e+00 3.000000000000e+01 0.000000000000e+00 0.000000000000e+00 0.000000000000e+00 
3.000000000000e+00 3.000000000000e+01 0.000000000000e+00 0.000000000000e+00 0.000000000000e+00 
4.000000000000e+00 3.000000000000e+01 0.000000000000e+00 0.000000000000e+00 0.000000000000e+00 
5.000000000000e+00 3.000000000000e+01 0.000000000000e+00 0.000000000000e+00 0.000000000000e+00 
6.000000000000e+00 3.000000000000e+01 0.000000000000e+00 0.000000000000e+00 0.000000000000e+00 
7.000000000000e+00 3.000000000000e+01 0.000000000000e+00 0.000000000000e+00 0.000000000000e+00 
8.000000000000e+00 3.000000000000e+01 0.000000000000e+00 0.000000000000e+00 0.000000000000e+00 
9.000000000000e+00 3.000000000000e+01 0.000000000000e+00 0.000000000000e+00 0.000000000000e+00 
1.000000000000e+01 3.000000000000e+01 0.000000000000e+00 0.000000000000e+00 0.000000000000e+00 
1.100000000000e+01 3.000000000000e+01 0.000000000000e+00 0.000000000000e+00 0.000000000000e+00 
1.200000000000e+01 3.000000000000e+01 0.000000000000e+00 0.000000000000e+00 0.000000000000e+00 
1.300000000000e+01 3.000000000000e+01 0.000000000000e+00 0.000000000000e+00 0.000000000000e+00 
1.400000000000e+01 3.000000000000e+01 0.000000000000e+00 0.000000000000e+00 0.000000000000e+00 
1.500000000000e+01 3.000000000000e+01 0.000000000000e+00 0.000000000000e+00 0.000000000000e+00 
1.600000000000e+01 3.000000000000e+01 0.000000000000e+00 0.000000000000e+00 0.000000000000e+00 
1.700000000000e+01 3.000000000000e+01 0.000000000000e+00 0.000000000000e+00 0.000000000000e+00 
1.800000000000e+01 3.000000000000e+01 0.000000000000e+00 0.000000000000e+00 0.000000000000e+00 
1.900000000000e+01 3.000000000000e+01 0.000000000000e+00 0.000000000000e+00 0.000000000000e+00 
2.000000000000e+01 3.000000000000e+01 0.000000000000e+00 0.000000000000e+00 0.000000000000e+00 
2.100000000000e+01 3.000000000000e+01 0.000000000000e+00 0.000000000000e+00 0.000000000000e+00 
2.200000000000e+01 3.000000000000e+01 0.000000000000e+00 0.000000000000e+00 0.000000000000e+00 
2.300000000000e+01 3.000000000000e+01 0.000000000000e+00 0.000000000000e+00 0.000000000000e+00 
2.400000000000e+01 3.000000000000e+01 0.000000000000e+00 0.000000000000e+00 0.000000000000e+00 
2.500000000000e+01 3.000000000000e+01 0.000000000000e+00 0.000000000000e+00 0.000000000000e+00 
2.600000000000e+01 3.000000000000e+01 0.000000000000e+00 0.000000000000e+00 0.000000000000e+00 
2.700000000000e+01 3.000000000000e+01 0.000000000000e+00 0.000000000000e+00 0.000000000000e+00 
2.800000000000e+01 3.000000000000e+01 0.000000000000e+00 0.000000000000e+00 0.000000000000e+00 
2.900000000000e+01 3.000000000000e+01 0.000000000000e+00 0.000000000000e+00 0.000000000000e+00 
3.000000000000e+01 3.000000000000e+01 0.000000000000e+00 0.000000000000e+00 0.000000000000e+00 
 TITLE = "Profiles along polylines"
 VARIABLES = "DIST" "HEAD" "VELOCITY_X1" "VELOCITY_Y1" "VELOCITY_Z1" 
 ZONE T="TIME=1.797693134862e+308"
0.000000000000e+00 3.001037097052e+01 2.305116054931e-08 -1.467257628689e-12 0.000000000000e+00 
1.000000000000e+00 3.001037103650e+01 3.542386249046e-08 -3.722436388966e-12 0.000000000000e+00 
2.000000000000e+00 3.001037116615e+01 2.469777219917e-08 -7.550453606500e-12 0.000000000000e+00 
3.000000000000e+00 3.001037708274e+01 2.965056158675e-07 -2.828916087784e-11 0.000000000000e+00 
4.000000000000e+00 3.001037716597e+01 2.974065733681e-07 -6.668389796275e-11 0.000000000000e+00 
5.000000000000e+00 3.001040340183e+01 5.244605656774e-07 -1.221678293891e-10 0.000000000000e+00 
6.000000000000e+00 3.001040355940e+01 5.248340805967e-07 -1.947209519972e-10 0.000000000000e+00 
7.000000000000e+00 3.001046163430e+01 2.566851905249e-07 -2.517717770132e-10 0.000000000000e+00 
8.000000000000e+00 3.001046219390e+01 9.637491018921e-07 -3.505648832170e-10 0.000000000000e+00 
9.000000000000e+00 3.001046250990e+01 7.853203183813e-07 -4.922668682614e-10 0.000000000000e+00 
1.000000000000e+01 3.001046632590e+01 8.394974258984e-08 -5.628291026374e-10 0.000000000000e+00 
1.100000000000e+01 3.001050475855e+01 2.140816154124e-08 -5.717349902251e-10 0.000000000000e+00 
1.200000000000e+01 3.001052685891e+01 2.261221641526e-08 -5.760077441840e-10 0.000000000000e+00 
1.300000000000e+01 3.001056081622e+01 2.157110303353e-08 -5.806582406477e-10 0.000000000000e+00 
1.400000000000e+01 3.001058526000e+01 1.854032934545e-08 -5.852267754134e-10 0.000000000000e+00 
1.500000000000e+01 3.001063767863e+01 3.001037605836e-08 -5.914297796251e-10 0.000000000000e+00 
1.600000000000e+01 3.001065083245e+01 3.200910399323e-08 -5.998642720673e-10 0.000000000000e+00 
1.700000000000e+01 3.001069140252e+01 3.881601098505e-08 -6.101458136246e-10 0.000000000000e+00 
1.800000000000e+01 3.001070206166e+01 3.161733691924e-08 -6.209011747746e-10 0.000000000000e+00 
1.900000000000e+01 3.001116318469e+01 1.208669849996e-09 -6.261668059644e-10 0.000000000000e+00 
2.000000000000e+01 3.001193383431e+01 3.676255645138e-08 -6.465795279667e-10 0.000000000000e+00 
2.100000000000e+01 3.001194475678e+01 3.820300864448e-08 -6.876043296503e-10 0.000000000000e+00 
2.200000000000e+01 3.001216762021e+01 5.589177210965e-08 -7.453075364074e-10 0.000000000000e+00 
2.300000000000e+01 3.001217639550e+01 5.298922582852e-07 -1.133141874388e-09 0.000000000000e+00 
2.400000000000e+01 3.001217828551e+01 5.175503470092e-07 -1.828631916187e-09 0.000000000000e+00 
2.500000000000e+01 3.001220994463e+01 5.459140102483e-08 -2.212344389926e-09 0.000000000000e+00 
2.600000000000e+01 3.001231591367e+01 1.478585654523e-08 -2.265091752164e-09 0.000000000000e+00 
2.700000000000e+01 3.001309430903e+01 2.083128751598e-07 -2.738448208947e-09 0.000000000000e+00 
2.800000000000e+01 3.001310426776e+01 2.066468028128e-07 -3.658984570546e-09 0.000000000000e+00 
2.900000000000e+01 3.003547358260e+01 1.355003015249e-08 -4.533840254014e-09 0.000000000000e+00 
3.000000000000e+01 3.003591838264e+01 2.676054966289e-08 -4.948109143024e-09 0.000000000000e+00 
