VARIABLES = "X","Y","Z",VELOCITY1_X,VELOCITY1_Y,VELOCITY1_Z
ZONE T="0.000000000000e+00s", 
8.990000000000e+02 0.000000000000e+00 5.000000000000e-01 0.000000000000e+00 0.000000000000e+00 0.000000000000e+00
9.000000000000e+02 0.000000000000e+00 5.000000000000e-01 0.000000000000e+00 0.000000000000e+00 0.000000000000e+00
8.990000000000e+02 0.000000000000e+00 1.500000000000e+00 0.000000000000e+00 0.000000000000e+00 0.000000000000e+00
9.000000000000e+02 0.000000000000e+00 1.500000000000e+00 0.000000000000e+00 0.000000000000e+00 0.000000000000e+00
8.990000000000e+02 0.000000000000e+00 2.500000000000e+00 0.000000000000e+00 0.000000000000e+00 0.000000000000e+00
9.000000000000e+02 0.000000000000e+00 2.500000000000e+00 0.000000000000e+00 0.000000000000e+00 0.000000000000e+00
8.990000000000e+02 0.000000000000e+00 3.500000000000e+00 0.000000000000e+00 0.000000000000e+00 0.000000000000e+00
9.000000000000e+02 0.000000000000e+00 3.500000000000e+00 0.000000000000e+00 0.000000000000e+00 0.000000000000e+00
8.990000000000e+02 0.000000000000e+00 4.500000000000e+00 0.000000000000e+00 0.000000000000e+00 0.000000000000e+00
9.000000000000e+02 0.000000000000e+00 4.500000000000e+00 0.000000000000e+00 0.000000000000e+00 0.000000000000e+00
8.990000000000e+02 0.000000000000e+00 5.500000000000e+00 0.000000000000e+00 0.000000000000e+00 0.000000000000e+00
9.000000000000e+02 0.000000000000e+00 5.500000000000e+00 0.000000000000e+00 0.000000000000e+00 0.000000000000e+00
8.990000000000e+02 0.000000000000e+00 6.500000000000e+00 0.000000000000e+00 0.000000000000e+00 0.000000000000e+00
9.000000000000e+02 0.000000000000e+00 6.500000000000e+00 0.000000000000e+00 0.000000000000e+00 0.000000000000e+00
8.990000000000e+02 0.000000000000e+00 7.500000000000e+00 0.000000000000e+00 0.000000000000e+00 0.000000000000e+00
9.000000000000e+02 0.000000000000e+00 7.500000000000e+00 0.000000000000e+00 0.000000000000e+00 0.000000000000e+00
8.990000000000e+02 0.000000000000e+00 8.500000000000e+00 0.000000000000e+00 0.000000000000e+00 0.000000000000e+00
9.000000000000e+02 0.000000000000e+00 8.500000000000e+00 0.000000000000e+00 0.000000000000e+00 0.000000000000e+00
8.990000000000e+02 0.000000000000e+00 9.500000000000e+00 0.000000000000e+00 0.000000000000e+00 0.000000000000e+00
9.000000000000e+02 0.000000000000e+00 9.500000000000e+00 0.000000000000e+00 0.000000000000e+00 0.000000000000e+00
8.990000000000e+02 0.000000000000e+00 1.050000000000e+01 0.000000000000e+00 0.000000000000e+00 0.000000000000e+00
9.000000000000e+02 0.000000000000e+00 1.050000000000e+01 0.000000000000e+00 0.000000000000e+00 0.000000000000e+00
8.990000000000e+02 0.000000000000e+00 1.150000000000e+01 0.000000000000e+00 0.000000000000e+00 0.000000000000e+00
9.000000000000e+02 0.000000000000e+00 1.150000000000e+01 0.000000000000e+00 0.000000000000e+00 0.000000000000e+00
8.990000000000e+02 0.000000000000e+00 1.250000000000e+01 0.000000000000e+00 0.000000000000e+00 0.000000000000e+00
9.000000000000e+02 0.000000000000e+00 1.250000000000e+01 0.000000000000e+00 0.000000000000e+00 0.000000000000e+00
8.990000000000e+02 0.000000000000e+00 1.350000000000e+01 0.000000000000e+00 0.000000000000e+00 0.000000000000e+00
9.000000000000e+02 0.000000000000e+00 1.350000000000e+01 0.000000000000e+00 0.000000000000e+00 0.000000000000e+00
8.990000000000e+02 0.000000000000e+00 1.450000000000e+01 0.000000000000e+00 0.000000000000e+00 0.000000000000e+00
9.000000000000e+02 0.000000000000e+00 1.450000000000e+01 0.000000000000e+00 0.000000000000e+00 0.000000000000e+00
8.990000000000e+02 0.000000000000e+00 1.550000000000e+01 0.000000000000e+00 0.000000000000e+00 0.000000000000e+00
9.000000000000e+02 0.000000000000e+00 1.550000000000e+01 0.000000000000e+00 0.000000000000e+00 0.000000000000e+00
8.990000000000e+02 0.000000000000e+00 1.650000000000e+01 0.000000000000e+00 0.000000000000e+00 0.000000000000e+00
9.000000000000e+02 0.000000000000e+00 1.650000000000e+01 0.000000000000e+00 0.000000000000e+00 0.000000000000e+00
8.990000000000e+02 0.000000000000e+00 1.750000000000e+01 0.000000000000e+00 0.000000000000e+00 0.000000000000e+00
9.000000000000e+02 0.000000000000e+00 1.750000000000e+01 0.000000000000e+00 0.000000000000e+00 0.000000000000e+00
8.990000000000e+02 0.000000000000e+00 1.850000000000e+01 0.000000000000e+00 0.000000000000e+00 0.000000000000e+00
9.000000000000e+02 0.000000000000e+00 1.850000000000e+01 0.000000000000e+00 0.000000000000e+00 0.000000000000e+00
8.990000000000e+02 0.000000000000e+00 1.950000000000e+01 0.000000000000e+00 0.000000000000e+00 0.000000000000e+00
9.000000000000e+02 0.000000000000e+00 1.950000000000e+01 0.000000000000e+00 0.000000000000e+00 0.000000000000e+00
8.990000000000e+02 0.000000000000e+00 2.050000000000e+01 0.000000000000e+00 0.000000000000e+00 0.000000000000e+00
9.000000000000e+02 0.000000000000e+00 2.050000000000e+01 0.000000000000e+00 0.000000000000e+00 0.000000000000e+00
8.990000000000e+02 0.000000000000e+00 2.150000000000e+01 0.000000000000e+00 0.000000000000e+00 0.000000000000e+00
9.000000000000e+02 0.000000000000e+00 2.150000000000e+01 0.000000000000e+00 0.000000000000e+00 0.000000000000e+00
8.990000000000e+02 0.000000000000e+00 2.250000000000e+01 0.000000000000e+00 0.000000000000e+00 0.000000000000e+00
9.000000000000e+02 0.000000000000e+00 2.250000000000e+01 0.000000000000e+00 0.000000000000e+00 0.000000000000e+00
8.990000000000e+02 0.000000000000e+00 2.350000000000e+01 0.000000000000e+00 0.000000000000e+00 0.000000000000e+00
9.000000000000e+02 0.000000000000e+00 2.350000000000e+01 0.000000000000e+00 0.000000000000e+00 0.000000000000e+00
8.990000000000e+02 0.000000000000e+00 2.450000000000e+01 0.000000000000e+00 0.000000000000e+00 0.000000000000e+00
9.000000000000e+02 0.000000000000e+00 2.450000000000e+01 0.000000000000e+00 0.000000000000e+00 0.000000000000e+00
8.990000000000e+02 0.000000000000e+00 2.550000000000e+01 0.000000000000e+00 0.000000000000e+00 0.000000000000e+00
9.000000000000e+02 0.000000000000e+00 2.550000000000e+01 0.000000000000e+00 0.000000000000e+00 0.000000000000e+00
8.990000000000e+02 0.000000000000e+00 2.650000000000e+01 0.000000000000e+00 0.000000000000e+00 0.000000000000e+00
9.000000000000e+02 0.000000000000e+00 2.650000000000e+01 0.000000000000e+00 0.000000000000e+00 0.000000000000e+00
8.990000000000e+02 0.000000000000e+00 2.750000000000e+01 0.000000000000e+00 0.000000000000e+00 0.000000000000e+00
9.000000000000e+02 0.000000000000e+00 2.750000000000e+01 0.000000000000e+00 0.000000000000e+00 0.000000000000e+00
8.990000000000e+02 0.000000000000e+00 2.850000000000e+01 0.000000000000e+00 0.000000000000e+00 0.000000000000e+00
9.000000000000e+02 0.000000000000e+00 2.850000000000e+01 0.000000000000e+00 0.000000000000e+00 0.000000000000e+00
8.990000000000e+02 0.000000000000e+00 2.950000000000e+01 0.000000000000e+00 0.000000000000e+00 0.000000000000e+00
9.000000000000e+02 0.000000000000e+00 2.950000000000e+01 0.000000000000e+00 0.000000000000e+00 0.000000000000e+00
VARIABLES = "X","Y","Z",VELOCITY1_X,VELOCITY1_Y,VELOCITY1_Z
ZONE T="1.797693134862e+308s", 
8.990000000000e+02 0.000000000000e+00 5.000000000000e-01 2.186619792434e-08 -9.982144494122e-12 0.000000000000e+00
9.000000000000e+02 0.000000000000e+00 5.000000000000e-01 2.188608471143e-08 -9.938629005757e-12 0.000000000000e+00
8.990000000000e+02 0.000000000000e+00 1.500000000000e+00 4.533922237689e-08 -4.066323538437e-11 0.000000000000e+00
9.000000000000e+02 0.000000000000e+00 1.500000000000e+00 4.538045905679e-08 -4.048598842724e-11 0.000000000000e+00
8.990000000000e+02 0.000000000000e+00 2.500000000000e+00 1.516371071797e-09 -6.205563677873e-11 0.000000000000e+00
9.000000000000e+02 0.000000000000e+00 2.500000000000e+00 1.517750851233e-09 -6.178517825757e-11 0.000000000000e+00
8.990000000000e+02 0.000000000000e+00 3.500000000000e+00 5.607862596101e-07 -3.196340641039e-10 0.000000000000e+00
9.000000000000e+02 0.000000000000e+00 3.500000000000e+00 5.612980675358e-07 -3.182598886346e-10 0.000000000000e+00
8.990000000000e+02 0.000000000000e+00 4.500000000000e+00 3.221032531272e-09 -5.780049838066e-10 0.000000000000e+00
9.000000000000e+02 0.000000000000e+00 4.500000000000e+00 3.223977223419e-09 -5.755241189923e-10 0.000000000000e+00
8.990000000000e+02 0.000000000000e+00 5.500000000000e+00 9.896600835773e-07 -1.039380036068e-09 0.000000000000e+00
9.000000000000e+02 0.000000000000e+00 5.500000000000e+00 9.905765908785e-07 -1.035067224547e-09 0.000000000000e+00
8.990000000000e+02 0.000000000000e+00 6.500000000000e+00 3.916215428821e-09 -1.501116322800e-09 0.000000000000e+00
9.000000000000e+02 0.000000000000e+00 6.500000000000e+00 3.919854656826e-09 -1.494970993818e-09 0.000000000000e+00
8.990000000000e+02 0.000000000000e+00 7.500000000000e+00 4.801155347849e-07 -1.732640499922e-09 0.000000000000e+00
9.000000000000e+02 0.000000000000e+00 7.500000000000e+00 4.805734837986e-07 -1.725725027307e-09 0.000000000000e+00
8.990000000000e+02 0.000000000000e+00 8.500000000000e+00 1.337170944439e-06 -2.602115135216e-09 0.000000000000e+00
9.000000000000e+02 0.000000000000e+00 8.500000000000e+00 1.338446702082e-06 -2.592313001731e-09 0.000000000000e+00
8.990000000000e+02 0.000000000000e+00 9.500000000000e+00 1.436263742613e-07 -3.310696358104e-09 0.000000000000e+00
9.000000000000e+02 0.000000000000e+00 9.500000000000e+00 1.437634457868e-07 -3.298544665465e-09 0.000000000000e+00
8.990000000000e+02 0.000000000000e+00 1.050000000000e+01 1.461727608066e-08 -3.386541381729e-09 0.000000000000e+00
9.000000000000e+02 0.000000000000e+00 1.050000000000e+01 1.463127144469e-08 -3.374140967571e-09 0.000000000000e+00
8.990000000000e+02 0.000000000000e+00 1.150000000000e+01 2.561908630605e-08 -3.406133415722e-09 0.000000000000e+00
9.000000000000e+02 0.000000000000e+00 1.150000000000e+01 2.564398997248e-08 -3.393675863335e-09 0.000000000000e+00
8.990000000000e+02 0.000000000000e+00 1.250000000000e+01 1.681405035253e-08 -3.426978366614e-09 0.000000000000e+00
9.000000000000e+02 0.000000000000e+00 1.250000000000e+01 1.683055170391e-08 -3.414464272052e-09 0.000000000000e+00
8.990000000000e+02 0.000000000000e+00 1.350000000000e+01 2.356752319014e-08 -3.447082862843e-09 0.000000000000e+00
9.000000000000e+02 0.000000000000e+00 1.350000000000e+01 2.359095957159e-08 -3.434520357836e-09 0.000000000000e+00
8.990000000000e+02 0.000000000000e+00 1.450000000000e+01 1.107901028096e-08 -3.464496892445e-09 0.000000000000e+00
9.000000000000e+02 0.000000000000e+00 1.450000000000e+01 1.109014808085e-08 -3.451896175174e-09 0.000000000000e+00
8.990000000000e+02 0.000000000000e+00 1.550000000000e+01 4.480083622403e-08 -3.493144273056e-09 0.000000000000e+00
9.000000000000e+02 0.000000000000e+00 1.550000000000e+01 4.484671733010e-08 -3.480493341578e-09 0.000000000000e+00
8.990000000000e+02 0.000000000000e+00 1.650000000000e+01 1.474614554154e-08 -3.523820673129e-09 0.000000000000e+00
9.000000000000e+02 0.000000000000e+00 1.650000000000e+01 1.476133987233e-08 -3.511119278350e-09 0.000000000000e+00
8.990000000000e+02 0.000000000000e+00 1.750000000000e+01 5.726021214301e-08 -3.561464650803e-09 0.000000000000e+00
9.000000000000e+02 0.000000000000e+00 1.750000000000e+01 5.732002878549e-08 -3.548713370261e-09 0.000000000000e+00
8.990000000000e+02 0.000000000000e+00 1.850000000000e+01 1.346325609352e-09 -3.592220332186e-09 0.000000000000e+00
9.000000000000e+02 0.000000000000e+00 1.850000000000e+01 1.347762884638e-09 -3.579430836366e-09 0.000000000000e+00
8.990000000000e+02 0.000000000000e+00 1.950000000000e+01 8.147691435540e-10 -3.593540865105e-09 0.000000000000e+00
9.000000000000e+02 0.000000000000e+00 1.950000000000e+01 8.157876359582e-10 -3.580753642560e-09 0.000000000000e+00
8.990000000000e+02 0.000000000000e+00 2.050000000000e+01 6.201553124498e-08 -3.640312699319e-09 0.000000000000e+00
9.000000000000e+02 0.000000000000e+00 2.050000000000e+01 6.210829320359e-08 -3.627765080052e-09 0.000000000000e+00
8.990000000000e+02 0.000000000000e+00 2.150000000000e+01 3.232698980753e-09 -3.688999903286e-09 0.000000000000e+00
9.000000000000e+02 0.000000000000e+00 2.150000000000e+01 3.237569077360e-09 -3.676703472167e-09 0.000000000000e+00
8.990000000000e+02 0.000000000000e+00 2.250000000000e+01 9.091446531806e-08 -3.762337089627e-09 0.000000000000e+00
9.000000000000e+02 0.000000000000e+00 2.250000000000e+01 9.105684407578e-08 -3.750466233023e-09 0.000000000000e+00
8.990000000000e+02 0.000000000000e+00 2.350000000000e+01 8.012592879659e-07 -4.458253034265e-09 0.000000000000e+00
9.000000000000e+02 0.000000000000e+00 2.350000000000e+01 8.025157666517e-07 -4.450435169683e-09 0.000000000000e+00
8.990000000000e+02 0.000000000000e+00 2.450000000000e+01 7.003153035654e-08 -5.137970399122e-09 0.000000000000e+00
9.000000000000e+02 0.000000000000e+00 2.450000000000e+01 7.014136769059e-08 -5.134113613513e-09 0.000000000000e+00
8.990000000000e+02 0.000000000000e+00 2.550000000000e+01 2.168150806616e-08 -5.209565114445e-09 0.000000000000e+00
9.000000000000e+02 0.000000000000e+00 2.550000000000e+01 2.171554019654e-08 -5.206126417569e-09 0.000000000000e+00
8.990000000000e+02 0.000000000000e+00 2.650000000000e+01 2.987615748586e-09 -5.228859732402e-09 0.000000000000e+00
9.000000000000e+02 0.000000000000e+00 2.650000000000e+01 2.992320111665e-09 -5.225534413800e-09 0.000000000000e+00
8.990000000000e+02 0.000000000000e+00 2.750000000000e+01 3.281200253283e-07 -5.491173082572e-09 0.000000000000e+00
9.000000000000e+02 0.000000000000e+00 2.750000000000e+01 3.286427601989e-07 -5.489458186026e-09 0.000000000000e+00
8.990000000000e+02 0.000000000000e+00 2.850000000000e+01 1.881637660291e-10 -5.751292650657e-09 0.000000000000e+00
9.000000000000e+02 0.000000000000e+00 2.850000000000e+01 1.884638327422e-10 -5.751175238539e-09 0.000000000000e+00
8.990000000000e+02 0.000000000000e+00 2.950000000000e+01 1.137237331074e-08 -5.760526284973e-09 0.000000000000e+00
9.000000000000e+02 0.000000000000e+00 2.950000000000e+01 1.139064352225e-08 -5.760468030433e-09 0.000000000000e+00
