 TITLE = "Profiles along polylines"
 VARIABLES = "DIST" "HEAD" "VELOCITY_X1" "VELOCITY_Y1" "VELOCITY_Z1" 
 ZONE T="TIME=0.000000000000e+00"
0.000000000000e+00 3.000000000000e+01 0.000000000000e+00 0.000000000000e+00 0.000000000000e+00 
1.000000000000e+00 3.000000000000e+01 0.000000000000e+00 0.000000000000e+00 0.000000000000e+00 
2.000000000000e+00 3.000000000000e+01 0.000000000000e+00 0.000000000000e+00 0.000000000000e+00 
3.000000000000e+00 3.000000000000e+01 0.000000000000e+00 0.000000000000e+00 0.000000000000e+00 
4.000000000000e+00 3.000000000000e+01 0.000000000000e+00 0.000000000000e+00 0.000000000000e+00 
5.000000000000e+00 3.000000000000e+01 0.000000000000e+00 0.000000000000e+00 0.000000000000e+00 
6.000000000000e+00 3.000000000000e+01 0.000000000000e+00 0.000000000000e+00 0.000000000000e+00 
7.000000000000e+00 3.000000000000e+01 0.000000000000e+00 0.000000000000e+00 0.000000000000e+00 
8.000000000000e+00 3.000000000000e+01 0.000000000000e+00 0.000000000000e+00 0.000000000000e+00 
9.000000000000e+00 3.000000000000e+01 0.000000000000e+00 0.000000000000e+00 0.000000000000e+00 
1.000000000000e+01 3.000000000000e+01 0.000000000000e+00 0.000000000000e+00 0.000000000000e+00 
1.100000000000e+01 3.000000000000e+01 0.000000000000e+00 0.000000000000e+00 0.000000000000e+00 
1.200000000000e+01 3.000000000000e+01 0.000000000000e+00 0.000000000000e+00 0.000000000000e+00 
1.300000000000e+01 3.000000000000e+01 0.000000000000e+00 0.000000000000e+00 0.000000000000e+00 
1.400000000000e+01 3.000000000000e+01 0.000000000000e+00 0.000000000000e+00 0.000000000000e+00 
1.500000000000e+01 3.000000000000e+01 0.000000000000e+00 0.000000000000e+00 0.000000000000e+00 
1.600000000000e+01 3.000000000000e+01 0.000000000000e+00 0.000000000000e+00 0.000000000000e+00 
1.700000000000e+01 3.000000000000e+01 0.000000000000e+00 0.000000000000e+00 0.000000000000e+00 
1.800000000000e+01 3.000000000000e+01 0.000000000000e+00 0.000000000000e+00 0.000000000000e+00 
1.900000000000e+01 3.000000000000e+01 0.000000000000e+00 0.000000000000e+00 0.000000000000e+00 
2.000000000000e+01 3.000000000000e+01 0.000000000000e+00 0.000000000000e+00 0.000000000000e+00 
2.100000000000e+01 3.000000000000e+01 0.000000000000e+00 0.000000000000e+00 0.000000000000e+00 
2.200000000000e+01 3.000000000000e+01 0.000000000000e+00 0.000000000000e+00 0.000000000000e+00 
2.300000000000e+01 3.000000000000e+01 0.000000000000e+00 0.000000000000e+00 0.000000000000e+00 
2.400000000000e+01 3.000000000000e+01 0.000000000000e+00 0.000000000000e+00 0.000000000000e+00 
2.500000000000e+01 3.000000000000e+01 0.000000000000e+00 0.000000000000e+00 0.000000000000e+00 
2.600000000000e+01 3.000000000000e+01 0.000000000000e+00 0.000000000000e+00 0.000000000000e+00 
2.700000000000e+01 3.000000000000e+01 0.000000000000e+00 0.000000000000e+00 0.000000000000e+00 
2.800000000000e+01 3.000000000000e+01 0.000000000000e+00 0.000000000000e+00 0.000000000000e+00 
2.900000000000e+01 3.000000000000e+01 0.000000000000e+00 0.000000000000e+00 0.000000000000e+00 
3.000000000000e+01 3.000000000000e+01 0.000000000000e+00 0.000000000000e+00 0.000000000000e+00 
 TITLE = "Profiles along polylines"
 VARIABLES = "DIST" "HEAD" "VELOCITY_X1" "VELOCITY_Y1" "VELOCITY_Z1" 
 ZONE T="TIME=1.797693134862e+308"
0.000000000000e+00 3.000000000000e+01 2.306587362142e-08 -2.852002037745e-22 0.000000000000e+00 
1.000000000000e+00 3.000000000000e+01 3.544647660397e-08 -1.221738239718e-20 0.000000000000e+00 
2.000000000000e+00 3.000000000000e+01 2.471354416757e-08 -2.041653260081e-20 0.000000000000e+00 
3.000000000000e+00 3.000000000000e+01 2.966978450592e-07 4.370883900503e-22 0.000000000000e+00 
4.000000000000e+00 3.000000000000e+01 2.975994294548e-07 -1.873224889613e-19 0.000000000000e+00 
5.000000000000e+00 3.000000000000e+01 5.248245174739e-07 -3.216150595366e-19 0.000000000000e+00 
6.000000000000e+00 3.000000000000e+01 5.251984551197e-07 -6.511466486265e-19 0.000000000000e+00 
7.000000000000e+00 3.000000000000e+01 2.568940684792e-07 -1.971724795863e-19 0.000000000000e+00 
8.000000000000e+00 3.000000000000e+01 9.645346028986e-07 -5.662859885198e-19 0.000000000000e+00 
9.000000000000e+00 3.000000000000e+01 7.859611031003e-07 -9.063439894251e-19 0.000000000000e+00 
1.000000000000e+01 3.000000000000e+01 8.401923166261e-08 -9.642368568910e-20 0.000000000000e+00 
1.100000000000e+01 3.000000000000e+01 2.142843494997e-08 -1.424596643645e-20 0.000000000000e+00 
1.200000000000e+01 3.000000000000e+01 2.263518346172e-08 -6.945939203133e-21 0.000000000000e+00 
1.300000000000e+01 3.000000000000e+01 2.159530290198e-08 2.410734894497e-20 0.000000000000e+00 
1.400000000000e+01 3.000000000000e+01 1.856256008460e-08 2.274950258597e-20 0.000000000000e+00 
1.500000000000e+01 3.000000000000e+01 3.005137089240e-08 -2.166496217416e-20 0.000000000000e+00 
1.600000000000e+01 3.000000000000e+01 3.205421061894e-08 -4.306177929326e-20 0.000000000000e+00 
1.700000000000e+01 3.000000000000e+01 3.887605468329e-08 -3.544575058767e-20 0.000000000000e+00 
1.800000000000e+01 3.000000000000e+01 3.166744888572e-08 -5.306729832644e-20 0.000000000000e+00 
1.900000000000e+01 3.000000000000e+01 1.212581326962e-09 -1.113456998124e-21 0.000000000000e+00 
2.000000000000e+01 3.000000000000e+01 3.697338774707e-08 3.056965012364e-20 0.000000000000e+00 
2.100000000000e+01 3.000000000000e+01 3.842394292330e-08 3.128719063191e-20 0.000000000000e+00 
2.200000000000e+01 3.000000000000e+01 5.628480709069e-08 2.919609702653e-21 0.000000000000e+00 
2.300000000000e+01 3.000000000000e+01 5.336564195888e-07 4.602562900210e-19 0.000000000000e+00 
2.400000000000e+01 3.000000000000e+01 5.212469788561e-07 2.175775332022e-19 0.000000000000e+00 
2.500000000000e+01 3.000000000000e+01 5.502474607418e-08 -2.027427597744e-20 0.000000000000e+00 
2.600000000000e+01 3.000000000000e+01 1.494344536153e-08 -1.737765628166e-20 0.000000000000e+00 
2.700000000000e+01 3.000000000000e+01 2.145645032675e-07 -1.252715398797e-19 0.000000000000e+00 
2.800000000000e+01 3.000000000000e+01 2.129758109394e-07 -1.295857940685e-19 0.000000000000e+00 
2.900000000000e+01 3.000000000000e+01 2.791359115801e-08 6.181152363742e-21 0.000000000000e+00 
3.000000000000e+01 3.000000000000e+01 5.843407960233e-08 1.256766523925e-20 0.000000000000e+00 
