VARIABLES = "X","Y","Z",VELOCITY1_X,VELOCITY1_Y,VELOCITY1_Z
ZONE T="0.000000000000e+00s", 
4.990000000000e+02 0.000000000000e+00 5.000000000000e-01 0.000000000000e+00 0.000000000000e+00 0.000000000000e+00
5.000000000000e+02 0.000000000000e+00 5.000000000000e-01 0.000000000000e+00 0.000000000000e+00 0.000000000000e+00
4.990000000000e+02 0.000000000000e+00 1.500000000000e+00 0.000000000000e+00 0.000000000000e+00 0.000000000000e+00
5.000000000000e+02 0.000000000000e+00 1.500000000000e+00 0.000000000000e+00 0.000000000000e+00 0.000000000000e+00
4.990000000000e+02 0.000000000000e+00 2.500000000000e+00 0.000000000000e+00 0.000000000000e+00 0.000000000000e+00
5.000000000000e+02 0.000000000000e+00 2.500000000000e+00 0.000000000000e+00 0.000000000000e+00 0.000000000000e+00
4.990000000000e+02 0.000000000000e+00 3.500000000000e+00 0.000000000000e+00 0.000000000000e+00 0.000000000000e+00
5.000000000000e+02 0.000000000000e+00 3.500000000000e+00 0.000000000000e+00 0.000000000000e+00 0.000000000000e+00
4.990000000000e+02 0.000000000000e+00 4.500000000000e+00 0.000000000000e+00 0.000000000000e+00 0.000000000000e+00
5.000000000000e+02 0.000000000000e+00 4.500000000000e+00 0.000000000000e+00 0.000000000000e+00 0.000000000000e+00
4.990000000000e+02 0.000000000000e+00 5.500000000000e+00 0.000000000000e+00 0.000000000000e+00 0.000000000000e+00
5.000000000000e+02 0.000000000000e+00 5.500000000000e+00 0.000000000000e+00 0.000000000000e+00 0.000000000000e+00
4.990000000000e+02 0.000000000000e+00 6.500000000000e+00 0.000000000000e+00 0.000000000000e+00 0.000000000000e+00
5.000000000000e+02 0.000000000000e+00 6.500000000000e+00 0.000000000000e+00 0.000000000000e+00 0.000000000000e+00
4.990000000000e+02 0.000000000000e+00 7.500000000000e+00 0.000000000000e+00 0.000000000000e+00 0.000000000000e+00
5.000000000000e+02 0.000000000000e+00 7.500000000000e+00 0.000000000000e+00 0.000000000000e+00 0.000000000000e+00
4.990000000000e+02 0.000000000000e+00 8.500000000000e+00 0.000000000000e+00 0.000000000000e+00 0.000000000000e+00
5.000000000000e+02 0.000000000000e+00 8.500000000000e+00 0.000000000000e+00 0.000000000000e+00 0.000000000000e+00
4.990000000000e+02 0.000000000000e+00 9.500000000000e+00 0.000000000000e+00 0.000000000000e+00 0.000000000000e+00
5.000000000000e+02 0.000000000000e+00 9.500000000000e+00 0.000000000000e+00 0.000000000000e+00 0.000000000000e+00
4.990000000000e+02 0.000000000000e+00 1.050000000000e+01 0.000000000000e+00 0.000000000000e+00 0.000000000000e+00
5.000000000000e+02 0.000000000000e+00 1.050000000000e+01 0.000000000000e+00 0.000000000000e+00 0.000000000000e+00
4.990000000000e+02 0.000000000000e+00 1.150000000000e+01 0.000000000000e+00 0.000000000000e+00 0.000000000000e+00
5.000000000000e+02 0.000000000000e+00 1.150000000000e+01 0.000000000000e+00 0.000000000000e+00 0.000000000000e+00
4.990000000000e+02 0.000000000000e+00 1.250000000000e+01 0.000000000000e+00 0.000000000000e+00 0.000000000000e+00
5.000000000000e+02 0.000000000000e+00 1.250000000000e+01 0.000000000000e+00 0.000000000000e+00 0.000000000000e+00
4.990000000000e+02 0.000000000000e+00 1.350000000000e+01 0.000000000000e+00 0.000000000000e+00 0.000000000000e+00
5.000000000000e+02 0.000000000000e+00 1.350000000000e+01 0.000000000000e+00 0.000000000000e+00 0.000000000000e+00
4.990000000000e+02 0.000000000000e+00 1.450000000000e+01 0.000000000000e+00 0.000000000000e+00 0.000000000000e+00
5.000000000000e+02 0.000000000000e+00 1.450000000000e+01 0.000000000000e+00 0.000000000000e+00 0.000000000000e+00
4.990000000000e+02 0.000000000000e+00 1.550000000000e+01 0.000000000000e+00 0.000000000000e+00 0.000000000000e+00
5.000000000000e+02 0.000000000000e+00 1.550000000000e+01 0.000000000000e+00 0.000000000000e+00 0.000000000000e+00
4.990000000000e+02 0.000000000000e+00 1.650000000000e+01 0.000000000000e+00 0.000000000000e+00 0.000000000000e+00
5.000000000000e+02 0.000000000000e+00 1.650000000000e+01 0.000000000000e+00 0.000000000000e+00 0.000000000000e+00
4.990000000000e+02 0.000000000000e+00 1.750000000000e+01 0.000000000000e+00 0.000000000000e+00 0.000000000000e+00
5.000000000000e+02 0.000000000000e+00 1.750000000000e+01 0.000000000000e+00 0.000000000000e+00 0.000000000000e+00
4.990000000000e+02 0.000000000000e+00 1.850000000000e+01 0.000000000000e+00 0.000000000000e+00 0.000000000000e+00
5.000000000000e+02 0.000000000000e+00 1.850000000000e+01 0.000000000000e+00 0.000000000000e+00 0.000000000000e+00
4.990000000000e+02 0.000000000000e+00 1.950000000000e+01 0.000000000000e+00 0.000000000000e+00 0.000000000000e+00
5.000000000000e+02 0.000000000000e+00 1.950000000000e+01 0.000000000000e+00 0.000000000000e+00 0.000000000000e+00
4.990000000000e+02 0.000000000000e+00 2.050000000000e+01 0.000000000000e+00 0.000000000000e+00 0.000000000000e+00
5.000000000000e+02 0.000000000000e+00 2.050000000000e+01 0.000000000000e+00 0.000000000000e+00 0.000000000000e+00
4.990000000000e+02 0.000000000000e+00 2.150000000000e+01 0.000000000000e+00 0.000000000000e+00 0.000000000000e+00
5.000000000000e+02 0.000000000000e+00 2.150000000000e+01 0.000000000000e+00 0.000000000000e+00 0.000000000000e+00
4.990000000000e+02 0.000000000000e+00 2.250000000000e+01 0.000000000000e+00 0.000000000000e+00 0.000000000000e+00
5.000000000000e+02 0.000000000000e+00 2.250000000000e+01 0.000000000000e+00 0.000000000000e+00 0.000000000000e+00
4.990000000000e+02 0.000000000000e+00 2.350000000000e+01 0.000000000000e+00 0.000000000000e+00 0.000000000000e+00
5.000000000000e+02 0.000000000000e+00 2.350000000000e+01 0.000000000000e+00 0.000000000000e+00 0.000000000000e+00
4.990000000000e+02 0.000000000000e+00 2.450000000000e+01 0.000000000000e+00 0.000000000000e+00 0.000000000000e+00
5.000000000000e+02 0.000000000000e+00 2.450000000000e+01 0.000000000000e+00 0.000000000000e+00 0.000000000000e+00
4.990000000000e+02 0.000000000000e+00 2.550000000000e+01 0.000000000000e+00 0.000000000000e+00 0.000000000000e+00
5.000000000000e+02 0.000000000000e+00 2.550000000000e+01 0.000000000000e+00 0.000000000000e+00 0.000000000000e+00
4.990000000000e+02 0.000000000000e+00 2.650000000000e+01 0.000000000000e+00 0.000000000000e+00 0.000000000000e+00
5.000000000000e+02 0.000000000000e+00 2.650000000000e+01 0.000000000000e+00 0.000000000000e+00 0.000000000000e+00
4.990000000000e+02 0.000000000000e+00 2.750000000000e+01 0.000000000000e+00 0.000000000000e+00 0.000000000000e+00
5.000000000000e+02 0.000000000000e+00 2.750000000000e+01 0.000000000000e+00 0.000000000000e+00 0.000000000000e+00
4.990000000000e+02 0.000000000000e+00 2.850000000000e+01 0.000000000000e+00 0.000000000000e+00 0.000000000000e+00
5.000000000000e+02 0.000000000000e+00 2.850000000000e+01 0.000000000000e+00 0.000000000000e+00 0.000000000000e+00
4.990000000000e+02 0.000000000000e+00 2.950000000000e+01 0.000000000000e+00 0.000000000000e+00 0.000000000000e+00
5.000000000000e+02 0.000000000000e+00 2.950000000000e+01 0.000000000000e+00 0.000000000000e+00 0.000000000000e+00
VARIABLES = "X","Y","Z",VELOCITY1_X,VELOCITY1_Y,VELOCITY1_Z
ZONE T="1.797693134862e+308s", 
4.990000000000e+02 0.000000000000e+00 5.000000000000e-01 1.227887770947e-08 -1.229120852349e-11 0.000000000000e+00
5.000000000000e+02 0.000000000000e+00 5.000000000000e-01 1.230346071871e-08 -1.229117060418e-11 0.000000000000e+00
4.990000000000e+02 0.000000000000e+00 1.500000000000e+00 2.546000657994e-08 -5.006622347071e-11 0.000000000000e+00
5.000000000000e+02 0.000000000000e+00 1.500000000000e+00 2.551097898010e-08 -5.006608145443e-11 0.000000000000e+00
4.990000000000e+02 0.000000000000e+00 2.500000000000e+00 8.514903463517e-10 -7.640140038981e-11 0.000000000000e+00
5.000000000000e+02 0.000000000000e+00 2.500000000000e+00 8.531950784604e-10 -7.640128227371e-11 0.000000000000e+00
4.990000000000e+02 0.000000000000e+00 3.500000000000e+00 3.148494595577e-07 -3.924180914894e-10 0.000000000000e+00
5.000000000000e+02 0.000000000000e+00 3.500000000000e+00 3.154798025716e-07 -3.924173804880e-10 0.000000000000e+00
4.990000000000e+02 0.000000000000e+00 4.500000000000e+00 1.808265370033e-09 -7.093623094162e-10 0.000000000000e+00
5.000000000000e+02 0.000000000000e+00 4.500000000000e+00 1.811885603228e-09 -7.093612059361e-10 0.000000000000e+00
4.990000000000e+02 0.000000000000e+00 5.500000000000e+00 5.552096987278e-07 -1.266941127482e-09 0.000000000000e+00
5.000000000000e+02 0.000000000000e+00 5.500000000000e+00 5.563212618565e-07 -1.266939055694e-09 0.000000000000e+00
4.990000000000e+02 0.000000000000e+00 6.500000000000e+00 2.196642081961e-09 -1.824855255913e-09 0.000000000000e+00
5.000000000000e+02 0.000000000000e+00 6.500000000000e+00 2.201039898641e-09 -1.824852499663e-09 0.000000000000e+00
4.990000000000e+02 0.000000000000e+00 7.500000000000e+00 2.689275265648e-07 -2.096255908622e-09 0.000000000000e+00
5.000000000000e+02 0.000000000000e+00 7.500000000000e+00 2.694659435734e-07 -2.096252576267e-09 0.000000000000e+00
4.990000000000e+02 0.000000000000e+00 8.500000000000e+00 7.489805478920e-07 -3.115165615966e-09 0.000000000000e+00
5.000000000000e+02 0.000000000000e+00 8.500000000000e+00 7.504800742289e-07 -3.115160797263e-09 0.000000000000e+00
4.990000000000e+02 0.000000000000e+00 9.500000000000e+00 8.044718635071e-08 -3.945362581938e-09 0.000000000000e+00
5.000000000000e+02 0.000000000000e+00 9.500000000000e+00 8.060824883990e-08 -3.945357424854e-09 0.000000000000e+00
4.990000000000e+02 0.000000000000e+00 1.050000000000e+01 8.185952136811e-09 -4.034080647484e-09 0.000000000000e+00
5.000000000000e+02 0.000000000000e+00 1.050000000000e+01 8.202341173749e-09 -4.034075341931e-09 0.000000000000e+00
4.990000000000e+02 0.000000000000e+00 1.150000000000e+01 1.433563134109e-08 -4.056625251037e-09 0.000000000000e+00
5.000000000000e+02 0.000000000000e+00 1.150000000000e+01 1.436433282276e-08 -4.056619902940e-09 0.000000000000e+00
4.990000000000e+02 0.000000000000e+00 1.250000000000e+01 9.403778988326e-09 -4.080388008035e-09 0.000000000000e+00
5.000000000000e+02 0.000000000000e+00 1.250000000000e+01 9.422606457490e-09 -4.080382641004e-09 0.000000000000e+00
4.990000000000e+02 0.000000000000e+00 1.350000000000e+01 1.317140570842e-08 -4.102985847198e-09 0.000000000000e+00
5.000000000000e+02 0.000000000000e+00 1.350000000000e+01 1.319777658208e-08 -4.102980458550e-09 0.000000000000e+00
4.990000000000e+02 0.000000000000e+00 1.450000000000e+01 6.188122175340e-09 -4.122364393738e-09 0.000000000000e+00
5.000000000000e+02 0.000000000000e+00 1.450000000000e+01 6.200511673464e-09 -4.122358998411e-09 0.000000000000e+00
4.990000000000e+02 0.000000000000e+00 1.550000000000e+01 2.499732142421e-08 -4.153582171631e-09 0.000000000000e+00
5.000000000000e+02 0.000000000000e+00 1.550000000000e+01 2.504737010047e-08 -4.153576730783e-09 0.000000000000e+00
4.990000000000e+02 0.000000000000e+00 1.650000000000e+01 8.224989428022e-09 -4.186836803450e-09 0.000000000000e+00
5.000000000000e+02 0.000000000000e+00 1.650000000000e+01 8.241457237877e-09 -4.186831361698e-09 0.000000000000e+00
4.990000000000e+02 0.000000000000e+00 1.750000000000e+01 3.191303414830e-08 -4.227016697996e-09 0.000000000000e+00
5.000000000000e+02 0.000000000000e+00 1.750000000000e+01 3.197692987146e-08 -4.227011208216e-09 0.000000000000e+00
4.990000000000e+02 0.000000000000e+00 1.850000000000e+01 7.494037211584e-10 -4.259710768906e-09 0.000000000000e+00
5.000000000000e+02 0.000000000000e+00 1.850000000000e+01 7.509041814336e-10 -4.259705282454e-09 0.000000000000e+00
4.990000000000e+02 0.000000000000e+00 1.950000000000e+01 4.489511079428e-10 -4.260910446723e-09 0.000000000000e+00
5.000000000000e+02 0.000000000000e+00 1.950000000000e+01 4.498500828661e-10 -4.260904961987e-09 0.000000000000e+00
4.990000000000e+02 0.000000000000e+00 2.050000000000e+01 3.370284452896e-08 -4.295105939828e-09 0.000000000000e+00
5.000000000000e+02 0.000000000000e+00 2.050000000000e+01 3.377033929619e-08 -4.295100589589e-09 0.000000000000e+00
4.990000000000e+02 0.000000000000e+00 2.150000000000e+01 1.755771334307e-09 -4.330604574245e-09 0.000000000000e+00
5.000000000000e+02 0.000000000000e+00 2.150000000000e+01 1.759287537592e-09 -4.330599272593e-09 0.000000000000e+00
4.990000000000e+02 0.000000000000e+00 2.250000000000e+01 4.921191968452e-08 -4.381638997546e-09 0.000000000000e+00
5.000000000000e+02 0.000000000000e+00 2.250000000000e+01 4.931047720525e-08 -4.381633898616e-09 0.000000000000e+00
4.990000000000e+02 0.000000000000e+00 2.350000000000e+01 4.336703733535e-07 -4.865145928735e-09 0.000000000000e+00
5.000000000000e+02 0.000000000000e+00 2.350000000000e+01 4.345388931173e-07 -4.865142633718e-09 0.000000000000e+00
4.990000000000e+02 0.000000000000e+00 2.450000000000e+01 3.790302377521e-08 -5.337266571687e-09 0.000000000000e+00
5.000000000000e+02 0.000000000000e+00 2.450000000000e+01 3.797893286834e-08 -5.337264918387e-09 0.000000000000e+00
4.990000000000e+02 0.000000000000e+00 2.550000000000e+01 1.173385809970e-08 -5.386963509071e-09 0.000000000000e+00
5.000000000000e+02 0.000000000000e+00 2.550000000000e+01 1.175735772905e-08 -5.386962036566e-09 0.000000000000e+00
4.990000000000e+02 0.000000000000e+00 2.650000000000e+01 1.616444682998e-09 -5.400330813478e-09 0.000000000000e+00
5.000000000000e+02 0.000000000000e+00 2.650000000000e+01 1.619681976482e-09 -5.400329394197e-09 0.000000000000e+00
4.990000000000e+02 0.000000000000e+00 2.750000000000e+01 1.773540914171e-07 -5.579539748202e-09 0.000000000000e+00
5.000000000000e+02 0.000000000000e+00 2.750000000000e+01 1.777092861676e-07 -5.579539133198e-09 0.000000000000e+00
4.990000000000e+02 0.000000000000e+00 2.850000000000e+01 1.016979094068e-10 -5.757206568077e-09 0.000000000000e+00
5.000000000000e+02 0.000000000000e+00 2.850000000000e+01 1.019015844294e-10 -5.757206516183e-09 0.000000000000e+00
4.990000000000e+02 0.000000000000e+00 2.950000000000e+01 6.143096207409e-09 -5.763459741069e-09 0.000000000000e+00
5.000000000000e+02 0.000000000000e+00 2.950000000000e+01 6.155399354732e-09 -5.763459704867e-09 0.000000000000e+00
