 TITLE = "Profiles along polylines"
 VARIABLES = "DIST" "HEAD" "VELOCITY_X1" "VELOCITY_Y1" "VELOCITY_Z1" 
 ZONE T="TIME=0.000000000000e+00"
0.000000000000e+00 3.000000000000e+01 0.000000000000e+00 0.000000000000e+00 0.000000000000e+00 
1.000000000000e+00 3.000000000000e+01 0.000000000000e+00 0.000000000000e+00 0.000000000000e+00 
2.000000000000e+00 3.000000000000e+01 0.000000000000e+00 0.000000000000e+00 0.000000000000e+00 
3.000000000000e+00 3.000000000000e+01 0.000000000000e+00 0.000000000000e+00 0.000000000000e+00 
4.000000000000e+00 3.000000000000e+01 0.000000000000e+00 0.000000000000e+00 0.000000000000e+00 
5.000000000000e+00 3.000000000000e+01 0.000000000000e+00 0.000000000000e+00 0.000000000000e+00 
6.000000000000e+00 3.000000000000e+01 0.000000000000e+00 0.000000000000e+00 0.000000000000e+00 
7.000000000000e+00 3.000000000000e+01 0.000000000000e+00 0.000000000000e+00 0.000000000000e+00 
8.000000000000e+00 3.000000000000e+01 0.000000000000e+00 0.000000000000e+00 0.000000000000e+00 
9.000000000000e+00 3.000000000000e+01 0.000000000000e+00 0.000000000000e+00 0.000000000000e+00 
1.000000000000e+01 3.000000000000e+01 0.000000000000e+00 0.000000000000e+00 0.000000000000e+00 
1.100000000000e+01 3.000000000000e+01 0.000000000000e+00 0.000000000000e+00 0.000000000000e+00 
1.200000000000e+01 3.000000000000e+01 0.000000000000e+00 0.000000000000e+00 0.000000000000e+00 
1.300000000000e+01 3.000000000000e+01 0.000000000000e+00 0.000000000000e+00 0.000000000000e+00 
1.400000000000e+01 3.000000000000e+01 0.000000000000e+00 0.000000000000e+00 0.000000000000e+00 
1.500000000000e+01 3.000000000000e+01 0.000000000000e+00 0.000000000000e+00 0.000000000000e+00 
1.600000000000e+01 3.000000000000e+01 0.000000000000e+00 0.000000000000e+00 0.000000000000e+00 
1.700000000000e+01 3.000000000000e+01 0.000000000000e+00 0.000000000000e+00 0.000000000000e+00 
1.800000000000e+01 3.000000000000e+01 0.000000000000e+00 0.000000000000e+00 0.000000000000e+00 
1.900000000000e+01 3.000000000000e+01 0.000000000000e+00 0.000000000000e+00 0.000000000000e+00 
2.000000000000e+01 3.000000000000e+01 0.000000000000e+00 0.000000000000e+00 0.000000000000e+00 
2.100000000000e+01 3.000000000000e+01 0.000000000000e+00 0.000000000000e+00 0.000000000000e+00 
2.200000000000e+01 3.000000000000e+01 0.000000000000e+00 0.000000000000e+00 0.000000000000e+00 
2.300000000000e+01 3.000000000000e+01 0.000000000000e+00 0.000000000000e+00 0.000000000000e+00 
2.400000000000e+01 3.000000000000e+01 0.000000000000e+00 0.000000000000e+00 0.000000000000e+00 
2.500000000000e+01 3.000000000000e+01 0.000000000000e+00 0.000000000000e+00 0.000000000000e+00 
2.600000000000e+01 3.000000000000e+01 0.000000000000e+00 0.000000000000e+00 0.000000000000e+00 
2.700000000000e+01 3.000000000000e+01 0.000000000000e+00 0.000000000000e+00 0.000000000000e+00 
2.800000000000e+01 3.000000000000e+01 0.000000000000e+00 0.000000000000e+00 0.000000000000e+00 
2.900000000000e+01 3.000000000000e+01 0.000000000000e+00 0.000000000000e+00 0.000000000000e+00 
3.000000000000e+01 3.000000000000e+01 0.000000000000e+00 0.000000000000e+00 0.000000000000e+00 
 TITLE = "Profiles along polylines"
 VARIABLES = "DIST" "HEAD" "VELOCITY_X1" "VELOCITY_Y1" "VELOCITY_Z1" 
 ZONE T="TIME=1.797693134862e+308"
0.000000000000e+00 3.054756971986e+01 1.228962891989e-09 -1.229021450575e-11 0.000000000000e+00 
1.000000000000e+00 3.054757027258e+01 1.888596349955e-09 -3.117901510910e-11 0.000000000000e+00 
2.000000000000e+00 3.054757135850e+01 1.316726685211e-09 -6.323857855199e-11 0.000000000000e+00 
3.000000000000e+00 3.054762091110e+01 1.579886859329e-08 -2.344054736385e-10 0.000000000000e+00 
4.000000000000e+00 3.054762159932e+01 1.584674929068e-08 -5.509128996944e-10 0.000000000000e+00 
5.000000000000e+00 3.054783824181e+01 2.787525139904e-08 -9.881894819374e-10 0.000000000000e+00 
6.000000000000e+00 3.054783950190e+01 2.789468729258e-08 -1.545979323851e-09 0.000000000000e+00 
7.000000000000e+00 3.054829828202e+01 1.356803079420e-08 -1.960690214437e-09 0.000000000000e+00 
8.000000000000e+00 3.054830258664e+01 5.093979092521e-08 -2.605840543523e-09 0.000000000000e+00 
9.000000000000e+00 3.054830488348e+01 4.150755749660e-08 -3.530490712254e-09 0.000000000000e+00 
1.000000000000e+01 3.054833196738e+01 4.435521801977e-09 -3.990040859299e-09 0.000000000000e+00 
1.100000000000e+01 3.054860411900e+01 1.127059800249e-09 -4.045676136153e-09 0.000000000000e+00 
1.200000000000e+01 3.054876039182e+01 1.188003263602e-09 -4.068829354307e-09 0.000000000000e+00 
1.300000000000e+01 3.054900001815e+01 1.129740061657e-09 -4.092010121774e-09 0.000000000000e+00 
1.400000000000e+01 3.054917204785e+01 9.688167592661e-10 -4.112998930234e-09 0.000000000000e+00 
1.500000000000e+01 3.054953994227e+01 1.560623098803e-09 -4.138296502926e-09 0.000000000000e+00 
1.600000000000e+01 3.054963170469e+01 1.662553976957e-09 -4.170533426668e-09 0.000000000000e+00 
1.700000000000e+01 3.054991282128e+01 2.008636434924e-09 -4.207251042925e-09 0.000000000000e+00 
1.800000000000e+01 3.054998596908e+01 1.634533461241e-09 -4.243688802705e-09 0.000000000000e+00 
1.900000000000e+01 3.055312503417e+01 5.996890255393e-11 -4.260638032330e-09 0.000000000000e+00 
2.000000000000e+01 3.055836637984e+01 1.709002400969e-09 -4.278329204278e-09 0.000000000000e+00 
2.100000000000e+01 3.055843675995e+01 1.774396924370e-09 -4.313169942393e-09 0.000000000000e+00 
2.200000000000e+01 3.055979890427e+01 2.550476948886e-09 -4.356426392730e-09 0.000000000000e+00 
2.300000000000e+01 3.055984807511e+01 2.416393231361e-08 -4.623601130730e-09 0.000000000000e+00 
2.400000000000e+01 3.055985427037e+01 2.359802358206e-08 -5.101319871875e-09 0.000000000000e+00 
2.500000000000e+01 3.055993203206e+01 2.483881094239e-09 -5.362215414036e-09 0.000000000000e+00 
2.600000000000e+01 3.056018555846e+01 6.680628669236e-10 -5.393741453431e-09 0.000000000000e+00 
2.700000000000e+01 3.056203048573e+01 8.955852617463e-09 -5.489989475027e-09 0.000000000000e+00 
2.800000000000e+01 3.056204785858e+01 8.880053101686e-09 -5.668382922870e-09 0.000000000000e+00 
2.900000000000e+01 3.059330956776e+01 3.124949972879e-10 -5.760335200115e-09 0.000000000000e+00 
3.000000000000e+01 3.059382766213e+01 6.148118512046e-10 -5.763460449292e-09 0.000000000000e+00 
