VARIABLES = "X","Y","Z",VELOCITY1_X,VELOCITY1_Y,VELOCITY1_Z
ZONE T="0.000000000000e+00s", 
2.490000000000e+02 0.000000000000e+00 5.000000000000e-01 0.000000000000e+00 0.000000000000e+00 0.000000000000e+00
2.500000000000e+02 0.000000000000e+00 5.000000000000e-01 0.000000000000e+00 0.000000000000e+00 0.000000000000e+00
2.490000000000e+02 0.000000000000e+00 1.500000000000e+00 0.000000000000e+00 0.000000000000e+00 0.000000000000e+00
2.500000000000e+02 0.000000000000e+00 1.500000000000e+00 0.000000000000e+00 0.000000000000e+00 0.000000000000e+00
2.490000000000e+02 0.000000000000e+00 2.500000000000e+00 0.000000000000e+00 0.000000000000e+00 0.000000000000e+00
2.500000000000e+02 0.000000000000e+00 2.500000000000e+00 0.000000000000e+00 0.000000000000e+00 0.000000000000e+00
2.490000000000e+02 0.000000000000e+00 3.500000000000e+00 0.000000000000e+00 0.000000000000e+00 0.000000000000e+00
2.500000000000e+02 0.000000000000e+00 3.500000000000e+00 0.000000000000e+00 0.000000000000e+00 0.000000000000e+00
2.490000000000e+02 0.000000000000e+00 4.500000000000e+00 0.000000000000e+00 0.000000000000e+00 0.000000000000e+00
2.500000000000e+02 0.000000000000e+00 4.500000000000e+00 0.000000000000e+00 0.000000000000e+00 0.000000000000e+00
2.490000000000e+02 0.000000000000e+00 5.500000000000e+00 0.000000000000e+00 0.000000000000e+00 0.000000000000e+00
2.500000000000e+02 0.000000000000e+00 5.500000000000e+00 0.000000000000e+00 0.000000000000e+00 0.000000000000e+00
2.490000000000e+02 0.000000000000e+00 6.500000000000e+00 0.000000000000e+00 0.000000000000e+00 0.000000000000e+00
2.500000000000e+02 0.000000000000e+00 6.500000000000e+00 0.000000000000e+00 0.000000000000e+00 0.000000000000e+00
2.490000000000e+02 0.000000000000e+00 7.500000000000e+00 0.000000000000e+00 0.000000000000e+00 0.000000000000e+00
2.500000000000e+02 0.000000000000e+00 7.500000000000e+00 0.000000000000e+00 0.000000000000e+00 0.000000000000e+00
2.490000000000e+02 0.000000000000e+00 8.500000000000e+00 0.000000000000e+00 0.000000000000e+00 0.000000000000e+00
2.500000000000e+02 0.000000000000e+00 8.500000000000e+00 0.000000000000e+00 0.000000000000e+00 0.000000000000e+00
2.490000000000e+02 0.000000000000e+00 9.500000000000e+00 0.000000000000e+00 0.000000000000e+00 0.000000000000e+00
2.500000000000e+02 0.000000000000e+00 9.500000000000e+00 0.000000000000e+00 0.000000000000e+00 0.000000000000e+00
2.490000000000e+02 0.000000000000e+00 1.050000000000e+01 0.000000000000e+00 0.000000000000e+00 0.000000000000e+00
2.500000000000e+02 0.000000000000e+00 1.050000000000e+01 0.000000000000e+00 0.000000000000e+00 0.000000000000e+00
2.490000000000e+02 0.000000000000e+00 1.150000000000e+01 0.000000000000e+00 0.000000000000e+00 0.000000000000e+00
2.500000000000e+02 0.000000000000e+00 1.150000000000e+01 0.000000000000e+00 0.000000000000e+00 0.000000000000e+00
2.490000000000e+02 0.000000000000e+00 1.250000000000e+01 0.000000000000e+00 0.000000000000e+00 0.000000000000e+00
2.500000000000e+02 0.000000000000e+00 1.250000000000e+01 0.000000000000e+00 0.000000000000e+00 0.000000000000e+00
2.490000000000e+02 0.000000000000e+00 1.350000000000e+01 0.000000000000e+00 0.000000000000e+00 0.000000000000e+00
2.500000000000e+02 0.000000000000e+00 1.350000000000e+01 0.000000000000e+00 0.000000000000e+00 0.000000000000e+00
2.490000000000e+02 0.000000000000e+00 1.450000000000e+01 0.000000000000e+00 0.000000000000e+00 0.000000000000e+00
2.500000000000e+02 0.000000000000e+00 1.450000000000e+01 0.000000000000e+00 0.000000000000e+00 0.000000000000e+00
2.490000000000e+02 0.000000000000e+00 1.550000000000e+01 0.000000000000e+00 0.000000000000e+00 0.000000000000e+00
2.500000000000e+02 0.000000000000e+00 1.550000000000e+01 0.000000000000e+00 0.000000000000e+00 0.000000000000e+00
2.490000000000e+02 0.000000000000e+00 1.650000000000e+01 0.000000000000e+00 0.000000000000e+00 0.000000000000e+00
2.500000000000e+02 0.000000000000e+00 1.650000000000e+01 0.000000000000e+00 0.000000000000e+00 0.000000000000e+00
2.490000000000e+02 0.000000000000e+00 1.750000000000e+01 0.000000000000e+00 0.000000000000e+00 0.000000000000e+00
2.500000000000e+02 0.000000000000e+00 1.750000000000e+01 0.000000000000e+00 0.000000000000e+00 0.000000000000e+00
2.490000000000e+02 0.000000000000e+00 1.850000000000e+01 0.000000000000e+00 0.000000000000e+00 0.000000000000e+00
2.500000000000e+02 0.000000000000e+00 1.850000000000e+01 0.000000000000e+00 0.000000000000e+00 0.000000000000e+00
2.490000000000e+02 0.000000000000e+00 1.950000000000e+01 0.000000000000e+00 0.000000000000e+00 0.000000000000e+00
2.500000000000e+02 0.000000000000e+00 1.950000000000e+01 0.000000000000e+00 0.000000000000e+00 0.000000000000e+00
2.490000000000e+02 0.000000000000e+00 2.050000000000e+01 0.000000000000e+00 0.000000000000e+00 0.000000000000e+00
2.500000000000e+02 0.000000000000e+00 2.050000000000e+01 0.000000000000e+00 0.000000000000e+00 0.000000000000e+00
2.490000000000e+02 0.000000000000e+00 2.150000000000e+01 0.000000000000e+00 0.000000000000e+00 0.000000000000e+00
2.500000000000e+02 0.000000000000e+00 2.150000000000e+01 0.000000000000e+00 0.000000000000e+00 0.000000000000e+00
2.490000000000e+02 0.000000000000e+00 2.250000000000e+01 0.000000000000e+00 0.000000000000e+00 0.000000000000e+00
2.500000000000e+02 0.000000000000e+00 2.250000000000e+01 0.000000000000e+00 0.000000000000e+00 0.000000000000e+00
2.490000000000e+02 0.000000000000e+00 2.350000000000e+01 0.000000000000e+00 0.000000000000e+00 0.000000000000e+00
2.500000000000e+02 0.000000000000e+00 2.350000000000e+01 0.000000000000e+00 0.000000000000e+00 0.000000000000e+00
2.490000000000e+02 0.000000000000e+00 2.450000000000e+01 0.000000000000e+00 0.000000000000e+00 0.000000000000e+00
2.500000000000e+02 0.000000000000e+00 2.450000000000e+01 0.000000000000e+00 0.000000000000e+00 0.000000000000e+00
2.490000000000e+02 0.000000000000e+00 2.550000000000e+01 0.000000000000e+00 0.000000000000e+00 0.000000000000e+00
2.500000000000e+02 0.000000000000e+00 2.550000000000e+01 0.000000000000e+00 0.000000000000e+00 0.000000000000e+00
2.490000000000e+02 0.000000000000e+00 2.650000000000e+01 0.000000000000e+00 0.000000000000e+00 0.000000000000e+00
2.500000000000e+02 0.000000000000e+00 2.650000000000e+01 0.000000000000e+00 0.000000000000e+00 0.000000000000e+00
2.490000000000e+02 0.000000000000e+00 2.750000000000e+01 0.000000000000e+00 0.000000000000e+00 0.000000000000e+00
2.500000000000e+02 0.000000000000e+00 2.750000000000e+01 0.000000000000e+00 0.000000000000e+00 0.000000000000e+00
2.490000000000e+02 0.000000000000e+00 2.850000000000e+01 0.000000000000e+00 0.000000000000e+00 0.000000000000e+00
2.500000000000e+02 0.000000000000e+00 2.850000000000e+01 0.000000000000e+00 0.000000000000e+00 0.000000000000e+00
2.490000000000e+02 0.000000000000e+00 2.950000000000e+01 0.000000000000e+00 0.000000000000e+00 0.000000000000e+00
2.500000000000e+02 0.000000000000e+00 2.950000000000e+01 0.000000000000e+00 0.000000000000e+00 0.000000000000e+00
VARIABLES = "X","Y","Z",VELOCITY1_X,VELOCITY1_Y,VELOCITY1_Z
ZONE T="1.797693134862e+308s", 
2.490000000000e+02 0.000000000000e+00 5.000000000000e-01 1.097178706804e-09 -2.198783096012e-12 0.000000000000e+00
2.500000000000e+02 0.000000000000e+00 5.000000000000e-01 1.101576225977e-09 -2.199028577774e-12 0.000000000000e+00
2.490000000000e+02 0.000000000000e+00 1.500000000000e+00 4.108198603687e-09 -1.263139008546e-11 0.000000000000e+00
2.500000000000e+02 0.000000000000e+00 1.500000000000e+00 4.124665721893e-09 -1.263122921839e-11 0.000000000000e+00
2.490000000000e+02 0.000000000000e+00 2.500000000000e+00 4.253026603791e-10 -2.171764537216e-11 0.000000000000e+00
2.500000000000e+02 0.000000000000e+00 2.500000000000e+00 4.270074216211e-10 -2.171762402898e-11 0.000000000000e+00
2.490000000000e+02 0.000000000000e+00 3.500000000000e+00 3.068262965161e-09 -2.871945017624e-11 0.000000000000e+00
2.500000000000e+02 0.000000000000e+00 3.500000000000e+00 3.080558831353e-09 -2.872025001463e-11 0.000000000000e+00
2.490000000000e+02 0.000000000000e+00 4.500000000000e+00 1.893126605956e-08 -7.281830828686e-11 0.000000000000e+00
2.500000000000e+02 0.000000000000e+00 4.500000000000e+00 1.900715103067e-08 -7.281209134389e-11 0.000000000000e+00
2.490000000000e+02 0.000000000000e+00 5.500000000000e+00 7.160346757994e-09 -1.251029851662e-10 0.000000000000e+00
2.500000000000e+02 0.000000000000e+00 5.500000000000e+00 7.189046085748e-09 -1.251033424685e-10 0.000000000000e+00
2.490000000000e+02 0.000000000000e+00 6.500000000000e+00 6.133058126348e-09 -1.517470574686e-10 0.000000000000e+00
2.500000000000e+02 0.000000000000e+00 6.500000000000e+00 6.157640743834e-09 -1.517480660432e-10 0.000000000000e+00
2.490000000000e+02 0.000000000000e+00 7.500000000000e+00 5.079456517950e-11 -1.641408947317e-10 0.000000000000e+00
2.500000000000e+02 0.000000000000e+00 7.500000000000e+00 5.099816887126e-11 -1.641410387897e-10 0.000000000000e+00
2.490000000000e+02 0.000000000000e+00 8.500000000000e+00 2.242382846397e-10 -1.646920431105e-10 0.000000000000e+00
2.500000000000e+02 0.000000000000e+00 8.500000000000e+00 2.251371962265e-10 -1.646920226897e-10 0.000000000000e+00
2.490000000000e+02 0.000000000000e+00 9.500000000000e+00 5.860645745292e-09 -1.768871972928e-10 0.000000000000e+00
2.500000000000e+02 0.000000000000e+00 9.500000000000e+00 5.884133708886e-09 -1.768890892960e-10 0.000000000000e+00
2.490000000000e+02 0.000000000000e+00 1.050000000000e+01 3.743086497016e-10 -1.893829181412e-10 0.000000000000e+00
2.500000000000e+02 0.000000000000e+00 1.050000000000e+01 3.758090571860e-10 -1.893830242795e-10 0.000000000000e+00
2.490000000000e+02 0.000000000000e+00 1.150000000000e+01 1.683342011360e-08 -2.238665629701e-10 0.000000000000e+00
2.500000000000e+02 0.000000000000e+00 1.150000000000e+01 1.690089301084e-08 -2.238672854420e-10 0.000000000000e+00
2.490000000000e+02 0.000000000000e+00 1.250000000000e+01 8.073560091905e-10 -2.592245965083e-10 0.000000000000e+00
2.500000000000e+02 0.000000000000e+00 1.250000000000e+01 8.105921537839e-10 -2.592248959281e-10 0.000000000000e+00
2.490000000000e+02 0.000000000000e+00 1.350000000000e+01 6.578808078644e-09 -2.740274257325e-10 0.000000000000e+00
2.500000000000e+02 0.000000000000e+00 1.350000000000e+01 6.605177624976e-09 -2.740270499931e-10 0.000000000000e+00
2.490000000000e+02 0.000000000000e+00 1.450000000000e+01 3.740988742023e-07 -1.036992603747e-09 0.000000000000e+00
2.500000000000e+02 0.000000000000e+00 1.450000000000e+01 3.755982872051e-07 -1.036977550119e-09 0.000000000000e+00
2.490000000000e+02 0.000000000000e+00 1.550000000000e+01 4.696969903782e-09 -1.796152176678e-09 0.000000000000e+00
2.500000000000e+02 0.000000000000e+00 1.550000000000e+01 4.715796691222e-09 -1.796152503625e-09 0.000000000000e+00
2.490000000000e+02 0.000000000000e+00 1.650000000000e+01 1.343232220318e-07 -2.074754636396e-09 0.000000000000e+00
2.500000000000e+02 0.000000000000e+00 1.650000000000e+01 1.348616156660e-07 -2.074764221673e-09 0.000000000000e+00
2.490000000000e+02 0.000000000000e+00 1.750000000000e+01 1.593977713302e-08 -2.375929296040e-09 0.000000000000e+00
2.500000000000e+02 0.000000000000e+00 1.750000000000e+01 1.600367018169e-08 -2.375925768068e-09 0.000000000000e+00
2.490000000000e+02 0.000000000000e+00 1.850000000000e+01 1.572605091645e-07 -2.723032191613e-09 0.000000000000e+00
2.500000000000e+02 0.000000000000e+00 1.850000000000e+01 1.578907928432e-07 -2.723070516822e-09 0.000000000000e+00
2.490000000000e+02 0.000000000000e+00 1.950000000000e+01 1.271672239105e-08 -3.063716186715e-09 0.000000000000e+00
2.500000000000e+02 0.000000000000e+00 1.950000000000e+01 1.276769664645e-08 -3.063713226978e-09 0.000000000000e+00
2.490000000000e+02 0.000000000000e+00 2.050000000000e+01 8.769471243278e-10 -3.090961732321e-09 0.000000000000e+00
2.500000000000e+02 0.000000000000e+00 2.050000000000e+01 8.804619439137e-10 -3.090962630055e-09 0.000000000000e+00
2.490000000000e+02 0.000000000000e+00 2.150000000000e+01 3.090817701513e-09 -3.098913768406e-09 0.000000000000e+00
2.500000000000e+02 0.000000000000e+00 2.150000000000e+01 3.103208230234e-09 -3.098912288104e-09 0.000000000000e+00
2.490000000000e+02 0.000000000000e+00 2.250000000000e+01 4.018153461301e-08 -3.185640187232e-09 0.000000000000e+00
2.500000000000e+02 0.000000000000e+00 2.250000000000e+01 4.034258233421e-08 -3.185647715312e-09 0.000000000000e+00
2.490000000000e+02 0.000000000000e+00 2.350000000000e+01 2.457957180703e-08 -3.315431236469e-09 0.000000000000e+00
2.500000000000e+02 0.000000000000e+00 2.350000000000e+01 2.467810086454e-08 -3.315424899928e-09 0.000000000000e+00
2.490000000000e+02 0.000000000000e+00 2.450000000000e+01 1.248555649998e-08 -3.389716857492e-09 0.000000000000e+00
2.500000000000e+02 0.000000000000e+00 2.450000000000e+01 1.253559440718e-08 -3.389718773232e-09 0.000000000000e+00
2.490000000000e+02 0.000000000000e+00 2.550000000000e+01 8.858185595333e-08 -3.592278449428e-09 0.000000000000e+00
2.500000000000e+02 0.000000000000e+00 2.550000000000e+01 8.893690623156e-08 -3.592276713954e-09 0.000000000000e+00
2.490000000000e+02 0.000000000000e+00 2.650000000000e+01 2.166026579436e-07 -4.203918304695e-09 0.000000000000e+00
2.500000000000e+02 0.000000000000e+00 2.650000000000e+01 2.174708481608e-07 -4.203906126245e-09 0.000000000000e+00
2.490000000000e+02 0.000000000000e+00 2.750000000000e+01 2.773149306434e-07 -5.193795535289e-09 0.000000000000e+00
2.500000000000e+02 0.000000000000e+00 2.750000000000e+01 2.784264588415e-07 -5.193823915206e-09 0.000000000000e+00
2.490000000000e+02 0.000000000000e+00 2.850000000000e+01 9.031888127040e-10 -5.751411254495e-09 0.000000000000e+00
2.500000000000e+02 0.000000000000e+00 2.850000000000e+01 9.068091327264e-10 -5.751411438217e-09 0.000000000000e+00
2.490000000000e+02 0.000000000000e+00 2.950000000000e+01 4.088694525703e-09 -5.761415517801e-09 0.000000000000e+00
2.500000000000e+02 0.000000000000e+00 2.950000000000e+01 4.105083674674e-09 -5.761414989352e-09 0.000000000000e+00
