 TITLE = "Profiles along polylines"
 VARIABLES = "DIST" "HEAD" "VELOCITY_X1" "VELOCITY_Y1" "VELOCITY_Z1" 
 ZONE T="TIME=0.000000000000e+00"
0.000000000000e+00 3.000000000000e+01 0.000000000000e+00 0.000000000000e+00 0.000000000000e+00 
1.000000000000e+00 3.000000000000e+01 0.000000000000e+00 0.000000000000e+00 0.000000000000e+00 
2.000000000000e+00 3.000000000000e+01 0.000000000000e+00 0.000000000000e+00 0.000000000000e+00 
3.000000000000e+00 3.000000000000e+01 0.000000000000e+00 0.000000000000e+00 0.000000000000e+00 
4.000000000000e+00 3.000000000000e+01 0.000000000000e+00 0.000000000000e+00 0.000000000000e+00 
5.000000000000e+00 3.000000000000e+01 0.000000000000e+00 0.000000000000e+00 0.000000000000e+00 
6.000000000000e+00 3.000000000000e+01 0.000000000000e+00 0.000000000000e+00 0.000000000000e+00 
7.000000000000e+00 3.000000000000e+01 0.000000000000e+00 0.000000000000e+00 0.000000000000e+00 
8.000000000000e+00 3.000000000000e+01 0.000000000000e+00 0.000000000000e+00 0.000000000000e+00 
9.000000000000e+00 3.000000000000e+01 0.000000000000e+00 0.000000000000e+00 0.000000000000e+00 
1.000000000000e+01 3.000000000000e+01 0.000000000000e+00 0.000000000000e+00 0.000000000000e+00 
1.100000000000e+01 3.000000000000e+01 0.000000000000e+00 0.000000000000e+00 0.000000000000e+00 
1.200000000000e+01 3.000000000000e+01 0.000000000000e+00 0.000000000000e+00 0.000000000000e+00 
1.300000000000e+01 3.000000000000e+01 0.000000000000e+00 0.000000000000e+00 0.000000000000e+00 
1.400000000000e+01 3.000000000000e+01 0.000000000000e+00 0.000000000000e+00 0.000000000000e+00 
1.500000000000e+01 3.000000000000e+01 0.000000000000e+00 0.000000000000e+00 0.000000000000e+00 
1.600000000000e+01 3.000000000000e+01 0.000000000000e+00 0.000000000000e+00 0.000000000000e+00 
1.700000000000e+01 3.000000000000e+01 0.000000000000e+00 0.000000000000e+00 0.000000000000e+00 
1.800000000000e+01 3.000000000000e+01 0.000000000000e+00 0.000000000000e+00 0.000000000000e+00 
1.900000000000e+01 3.000000000000e+01 0.000000000000e+00 0.000000000000e+00 0.000000000000e+00 
2.000000000000e+01 3.000000000000e+01 0.000000000000e+00 0.000000000000e+00 0.000000000000e+00 
2.100000000000e+01 3.000000000000e+01 0.000000000000e+00 0.000000000000e+00 0.000000000000e+00 
2.200000000000e+01 3.000000000000e+01 0.000000000000e+00 0.000000000000e+00 0.000000000000e+00 
2.300000000000e+01 3.000000000000e+01 0.000000000000e+00 0.000000000000e+00 0.000000000000e+00 
2.400000000000e+01 3.000000000000e+01 0.000000000000e+00 0.000000000000e+00 0.000000000000e+00 
2.500000000000e+01 3.000000000000e+01 0.000000000000e+00 0.000000000000e+00 0.000000000000e+00 
2.600000000000e+01 3.000000000000e+01 0.000000000000e+00 0.000000000000e+00 0.000000000000e+00 
2.700000000000e+01 3.000000000000e+01 0.000000000000e+00 0.000000000000e+00 0.000000000000e+00 
2.800000000000e+01 3.000000000000e+01 0.000000000000e+00 0.000000000000e+00 0.000000000000e+00 
2.900000000000e+01 3.000000000000e+01 0.000000000000e+00 0.000000000000e+00 0.000000000000e+00 
3.000000000000e+01 3.000000000000e+01 0.000000000000e+00 0.000000000000e+00 0.000000000000e+00 
 TITLE = "Profiles along polylines"
 VARIABLES = "DIST" "HEAD" "VELOCITY_X1" "VELOCITY_Y1" "VELOCITY_Z1" 
 ZONE T="TIME=1.797693134862e+308"
0.000000000000e+00 3.055065219880e+01 2.198723014117e-12 -2.198536741586e-12 0.000000000000e+00 
1.000000000000e+00 3.055065275148e+01 5.215343707885e-12 -7.415131300937e-12 0.000000000000e+00 
2.000000000000e+00 3.055065359955e+01 4.542493477587e-12 -1.717526171140e-11 0.000000000000e+00 
3.000000000000e+00 3.055066768451e+01 3.500996717528e-12 -2.521917373991e-11 0.000000000000e+00 
4.000000000000e+00 3.055067026619e+01 2.204282266993e-11 -5.076359280872e-11 0.000000000000e+00 
5.000000000000e+00 3.055067132695e+01 2.614159084918e-11 -9.895925691640e-11 0.000000000000e+00 
6.000000000000e+00 3.055067614620e+01 1.332153535985e-11 -1.384300485124e-10 0.000000000000e+00 
7.000000000000e+00 3.055068297064e+01 6.195733124231e-12 -1.579483611025e-10 0.000000000000e+00 
8.000000000000e+00 3.055157429327e+01 2.755073436346e-13 -1.644231732860e-10 0.000000000000e+00 
9.000000000000e+00 3.055177687375e+01 6.097254028843e-12 -1.707952304368e-10 0.000000000000e+00 
1.000000000000e+01 3.055178519864e+01 6.247164342962e-12 -1.831404172731e-10 0.000000000000e+00 
1.100000000000e+01 3.055192475257e+01 1.724201439388e-11 -2.066284089681e-10 0.000000000000e+00 
1.200000000000e+01 3.055192842062e+01 1.767452168799e-11 -2.415490637686e-10 0.000000000000e+00 
1.300000000000e+01 3.055201698062e+01 7.399606717816e-12 -2.666324299369e-10 0.000000000000e+00 
1.400000000000e+01 3.055202846941e+01 3.814328567036e-10 -6.554618911753e-10 0.000000000000e+00 
1.500000000000e+01 3.055202923388e+01 3.795383229630e-10 -1.416523814868e-09 0.000000000000e+00 
1.600000000000e+01 3.055213470735e+01 1.392948381896e-10 -1.935451478060e-09 0.000000000000e+00 
1.700000000000e+01 3.055213896755e+01 1.505391508808e-10 -2.225339725157e-09 0.000000000000e+00 
1.800000000000e+01 3.055218007956e+01 1.735611943599e-10 -2.549469256137e-09 0.000000000000e+00 
1.900000000000e+01 3.055218485535e+01 1.702992860439e-10 -2.893353833416e-09 0.000000000000e+00 
2.000000000000e+01 3.055225130427e+01 1.361806729627e-11 -3.077333870666e-09 0.000000000000e+00 
2.100000000000e+01 3.055322346253e+01 3.975341937980e-12 -3.094941232423e-09 0.000000000000e+00 
2.200000000000e+01 3.055349999925e+01 4.335860882954e-11 -3.142280102119e-09 0.000000000000e+00 
2.300000000000e+01 3.055352186612e+01 6.488838159562e-11 -3.250539652443e-09 0.000000000000e+00 
2.400000000000e+01 3.055355906952e+01 3.714259017320e-11 -3.352576460773e-09 0.000000000000e+00 
2.500000000000e+01 3.055363395052e+01 1.012730713832e-10 -3.490990320518e-09 0.000000000000e+00 
2.600000000000e+01 3.055364513562e+01 3.057887454787e-10 -3.898059268594e-09 0.000000000000e+00 
2.700000000000e+01 3.055365048865e+01 4.948974060015e-10 -4.698790792708e-09 0.000000000000e+00 
2.800000000000e+01 3.055365565427e+01 2.787439693053e-10 -5.472570173877e-09 0.000000000000e+00 
2.900000000000e+01 3.055541200848e+01 5.002270989527e-12 -5.756413154508e-09 0.000000000000e+00 
3.000000000000e+01 3.055580066016e+01 8.193733595560e-12 -5.761414382620e-09 0.000000000000e+00 
