 TITLE = "Profiles along polylines"
 VARIABLES = "DIST" "HEAD" "VELOCITY_X1" "VELOCITY_Y1" "VELOCITY_Z1" 
 ZONE T="TIME=0.000000000000e+00"
0.000000000000e+00 3.000000000000e+01 0.000000000000e+00 0.000000000000e+00 0.000000000000e+00 
1.000000000000e+00 3.000000000000e+01 0.000000000000e+00 0.000000000000e+00 0.000000000000e+00 
2.000000000000e+00 3.000000000000e+01 0.000000000000e+00 0.000000000000e+00 0.000000000000e+00 
3.000000000000e+00 3.000000000000e+01 0.000000000000e+00 0.000000000000e+00 0.000000000000e+00 
4.000000000000e+00 3.000000000000e+01 0.000000000000e+00 0.000000000000e+00 0.000000000000e+00 
5.000000000000e+00 3.000000000000e+01 0.000000000000e+00 0.000000000000e+00 0.000000000000e+00 
6.000000000000e+00 3.000000000000e+01 0.000000000000e+00 0.000000000000e+00 0.000000000000e+00 
7.000000000000e+00 3.000000000000e+01 0.000000000000e+00 0.000000000000e+00 0.000000000000e+00 
8.000000000000e+00 3.000000000000e+01 0.000000000000e+00 0.000000000000e+00 0.000000000000e+00 
9.000000000000e+00 3.000000000000e+01 0.000000000000e+00 0.000000000000e+00 0.000000000000e+00 
1.000000000000e+01 3.000000000000e+01 0.000000000000e+00 0.000000000000e+00 0.000000000000e+00 
1.100000000000e+01 3.000000000000e+01 0.000000000000e+00 0.000000000000e+00 0.000000000000e+00 
1.200000000000e+01 3.000000000000e+01 0.000000000000e+00 0.000000000000e+00 0.000000000000e+00 
1.300000000000e+01 3.000000000000e+01 0.000000000000e+00 0.000000000000e+00 0.000000000000e+00 
1.400000000000e+01 3.000000000000e+01 0.000000000000e+00 0.000000000000e+00 0.000000000000e+00 
1.500000000000e+01 3.000000000000e+01 0.000000000000e+00 0.000000000000e+00 0.000000000000e+00 
1.600000000000e+01 3.000000000000e+01 0.000000000000e+00 0.000000000000e+00 0.000000000000e+00 
1.700000000000e+01 3.000000000000e+01 0.000000000000e+00 0.000000000000e+00 0.000000000000e+00 
1.800000000000e+01 3.000000000000e+01 0.000000000000e+00 0.000000000000e+00 0.000000000000e+00 
1.900000000000e+01 3.000000000000e+01 0.000000000000e+00 0.000000000000e+00 0.000000000000e+00 
2.000000000000e+01 3.000000000000e+01 0.000000000000e+00 0.000000000000e+00 0.000000000000e+00 
2.100000000000e+01 3.000000000000e+01 0.000000000000e+00 0.000000000000e+00 0.000000000000e+00 
2.200000000000e+01 3.000000000000e+01 0.000000000000e+00 0.000000000000e+00 0.000000000000e+00 
2.300000000000e+01 3.000000000000e+01 0.000000000000e+00 0.000000000000e+00 0.000000000000e+00 
2.400000000000e+01 3.000000000000e+01 0.000000000000e+00 0.000000000000e+00 0.000000000000e+00 
2.500000000000e+01 3.000000000000e+01 0.000000000000e+00 0.000000000000e+00 0.000000000000e+00 
2.600000000000e+01 3.000000000000e+01 0.000000000000e+00 0.000000000000e+00 0.000000000000e+00 
2.700000000000e+01 3.000000000000e+01 0.000000000000e+00 0.000000000000e+00 0.000000000000e+00 
2.800000000000e+01 3.000000000000e+01 0.000000000000e+00 0.000000000000e+00 0.000000000000e+00 
2.900000000000e+01 3.000000000000e+01 0.000000000000e+00 0.000000000000e+00 0.000000000000e+00 
3.000000000000e+01 3.000000000000e+01 0.000000000000e+00 0.000000000000e+00 0.000000000000e+00 
 TITLE = "Profiles along polylines"
 VARIABLES = "DIST" "HEAD" "VELOCITY_X1" "VELOCITY_Y1" "VELOCITY_Z1" 
 ZONE T="TIME=1.797693134862e+308"
0.000000000000e+00 3.041246594685e+01 2.198865060238e-09 -2.199376533033e-12 0.000000000000e+00 
1.000000000000e+00 3.041246649974e+01 5.216071659578e-09 -7.415906277316e-12 0.000000000000e+00 
2.000000000000e+00 3.041246734785e+01 4.542815186695e-09 -1.717517624481e-11 0.000000000000e+00 
3.000000000000e+00 3.041248143224e+01 3.500742339186e-09 -2.521953881321e-11 0.000000000000e+00 
4.000000000000e+00 3.041248401407e+01 2.204473055544e-08 -5.076671590591e-11 0.000000000000e+00 
5.000000000000e+00 3.041248507490e+01 2.614522049268e-08 -9.895855134344e-11 0.000000000000e+00 
6.000000000000e+00 3.041248989391e+01 1.332071463783e-08 -1.384283317441e-10 0.000000000000e+00 
7.000000000000e+00 3.041249671848e+01 6.196557713343e-09 -1.579475979325e-10 0.000000000000e+00 
8.000000000000e+00 3.041338801863e+01 2.755990255800e-10 -1.644190119770e-10 0.000000000000e+00 
9.000000000000e+00 3.041359059396e+01 6.097414371274e-09 -1.707925924189e-10 0.000000000000e+00 
1.000000000000e+01 3.041359891880e+01 6.247793651618e-09 -1.831381542249e-10 0.000000000000e+00 
1.100000000000e+01 3.041373847020e+01 1.724317764833e-08 -2.066306577840e-10 0.000000000000e+00 
1.200000000000e+01 3.041374213838e+01 1.767711577013e-08 -2.415517423647e-10 0.000000000000e+00 
1.300000000000e+01 3.041383069750e+01 7.401382120845e-09 -2.666298864593e-10 0.000000000000e+00 
1.400000000000e+01 3.041384218618e+01 3.814620174451e-07 -6.555593691617e-10 0.000000000000e+00 
1.500000000000e+01 3.041384295080e+01 3.795763134109e-07 -1.416616525536e-09 0.000000000000e+00 
1.600000000000e+01 3.041394842357e+01 1.393066270599e-07 -1.935458062706e-09 0.000000000000e+00 
1.700000000000e+01 3.041395268382e+01 1.505726077221e-07 -2.225345888878e-09 0.000000000000e+00 
1.800000000000e+01 3.041399379560e+01 1.735571165470e-07 -2.549501923822e-09 0.000000000000e+00 
1.900000000000e+01 3.041399857153e+01 1.703274269739e-07 -2.893394180439e-09 0.000000000000e+00 
2.000000000000e+01 3.041406502051e+01 1.362167967908e-08 -3.077333473540e-09 0.000000000000e+00 
2.100000000000e+01 3.041503717774e+01 3.975942318222e-09 -3.094937671290e-09 0.000000000000e+00 
2.200000000000e+01 3.041531371411e+01 4.336152777472e-08 -3.142278567642e-09 0.000000000000e+00 
2.300000000000e+01 3.041533558099e+01 6.489457048753e-08 -3.250537740728e-09 0.000000000000e+00 
2.400000000000e+01 3.041537278434e+01 3.714151170777e-08 -3.352572960299e-09 0.000000000000e+00 
2.500000000000e+01 3.041544766528e+01 1.012756963222e-07 -3.490999766065e-09 0.000000000000e+00 
2.600000000000e+01 3.041545885045e+01 3.058134499034e-07 -3.898118416119e-09 0.000000000000e+00 
2.700000000000e+01 3.041546420361e+01 4.949354419291e-07 -4.698870871924e-09 0.000000000000e+00 
2.800000000000e+01 3.041546936929e+01 2.787914680478e-07 -5.472601272487e-09 0.000000000000e+00 
2.900000000000e+01 3.041722572320e+01 5.002171725625e-09 -5.756413858663e-09 0.000000000000e+00 
3.000000000000e+01 3.041761437505e+01 8.194243663220e-09 -5.761416737601e-09 0.000000000000e+00 
