VARIABLES = "X","Y","Z",VELOCITY1_X,VELOCITY1_Y,VELOCITY1_Z
ZONE T="0.000000000000e+00s", 
7.490000000000e+02 0.000000000000e+00 5.000000000000e-01 0.000000000000e+00 0.000000000000e+00 0.000000000000e+00
7.500000000000e+02 0.000000000000e+00 5.000000000000e-01 0.000000000000e+00 0.000000000000e+00 0.000000000000e+00
7.490000000000e+02 0.000000000000e+00 1.500000000000e+00 0.000000000000e+00 0.000000000000e+00 0.000000000000e+00
7.500000000000e+02 0.000000000000e+00 1.500000000000e+00 0.000000000000e+00 0.000000000000e+00 0.000000000000e+00
7.490000000000e+02 0.000000000000e+00 2.500000000000e+00 0.000000000000e+00 0.000000000000e+00 0.000000000000e+00
7.500000000000e+02 0.000000000000e+00 2.500000000000e+00 0.000000000000e+00 0.000000000000e+00 0.000000000000e+00
7.490000000000e+02 0.000000000000e+00 3.500000000000e+00 0.000000000000e+00 0.000000000000e+00 0.000000000000e+00
7.500000000000e+02 0.000000000000e+00 3.500000000000e+00 0.000000000000e+00 0.000000000000e+00 0.000000000000e+00
7.490000000000e+02 0.000000000000e+00 4.500000000000e+00 0.000000000000e+00 0.000000000000e+00 0.000000000000e+00
7.500000000000e+02 0.000000000000e+00 4.500000000000e+00 0.000000000000e+00 0.000000000000e+00 0.000000000000e+00
7.490000000000e+02 0.000000000000e+00 5.500000000000e+00 0.000000000000e+00 0.000000000000e+00 0.000000000000e+00
7.500000000000e+02 0.000000000000e+00 5.500000000000e+00 0.000000000000e+00 0.000000000000e+00 0.000000000000e+00
7.490000000000e+02 0.000000000000e+00 6.500000000000e+00 0.000000000000e+00 0.000000000000e+00 0.000000000000e+00
7.500000000000e+02 0.000000000000e+00 6.500000000000e+00 0.000000000000e+00 0.000000000000e+00 0.000000000000e+00
7.490000000000e+02 0.000000000000e+00 7.500000000000e+00 0.000000000000e+00 0.000000000000e+00 0.000000000000e+00
7.500000000000e+02 0.000000000000e+00 7.500000000000e+00 0.000000000000e+00 0.000000000000e+00 0.000000000000e+00
7.490000000000e+02 0.000000000000e+00 8.500000000000e+00 0.000000000000e+00 0.000000000000e+00 0.000000000000e+00
7.500000000000e+02 0.000000000000e+00 8.500000000000e+00 0.000000000000e+00 0.000000000000e+00 0.000000000000e+00
7.490000000000e+02 0.000000000000e+00 9.500000000000e+00 0.000000000000e+00 0.000000000000e+00 0.000000000000e+00
7.500000000000e+02 0.000000000000e+00 9.500000000000e+00 0.000000000000e+00 0.000000000000e+00 0.000000000000e+00
7.490000000000e+02 0.000000000000e+00 1.050000000000e+01 0.000000000000e+00 0.000000000000e+00 0.000000000000e+00
7.500000000000e+02 0.000000000000e+00 1.050000000000e+01 0.000000000000e+00 0.000000000000e+00 0.000000000000e+00
7.490000000000e+02 0.000000000000e+00 1.150000000000e+01 0.000000000000e+00 0.000000000000e+00 0.000000000000e+00
7.500000000000e+02 0.000000000000e+00 1.150000000000e+01 0.000000000000e+00 0.000000000000e+00 0.000000000000e+00
7.490000000000e+02 0.000000000000e+00 1.250000000000e+01 0.000000000000e+00 0.000000000000e+00 0.000000000000e+00
7.500000000000e+02 0.000000000000e+00 1.250000000000e+01 0.000000000000e+00 0.000000000000e+00 0.000000000000e+00
7.490000000000e+02 0.000000000000e+00 1.350000000000e+01 0.000000000000e+00 0.000000000000e+00 0.000000000000e+00
7.500000000000e+02 0.000000000000e+00 1.350000000000e+01 0.000000000000e+00 0.000000000000e+00 0.000000000000e+00
7.490000000000e+02 0.000000000000e+00 1.450000000000e+01 0.000000000000e+00 0.000000000000e+00 0.000000000000e+00
7.500000000000e+02 0.000000000000e+00 1.450000000000e+01 0.000000000000e+00 0.000000000000e+00 0.000000000000e+00
7.490000000000e+02 0.000000000000e+00 1.550000000000e+01 0.000000000000e+00 0.000000000000e+00 0.000000000000e+00
7.500000000000e+02 0.000000000000e+00 1.550000000000e+01 0.000000000000e+00 0.000000000000e+00 0.000000000000e+00
7.490000000000e+02 0.000000000000e+00 1.650000000000e+01 0.000000000000e+00 0.000000000000e+00 0.000000000000e+00
7.500000000000e+02 0.000000000000e+00 1.650000000000e+01 0.000000000000e+00 0.000000000000e+00 0.000000000000e+00
7.490000000000e+02 0.000000000000e+00 1.750000000000e+01 0.000000000000e+00 0.000000000000e+00 0.000000000000e+00
7.500000000000e+02 0.000000000000e+00 1.750000000000e+01 0.000000000000e+00 0.000000000000e+00 0.000000000000e+00
7.490000000000e+02 0.000000000000e+00 1.850000000000e+01 0.000000000000e+00 0.000000000000e+00 0.000000000000e+00
7.500000000000e+02 0.000000000000e+00 1.850000000000e+01 0.000000000000e+00 0.000000000000e+00 0.000000000000e+00
7.490000000000e+02 0.000000000000e+00 1.950000000000e+01 0.000000000000e+00 0.000000000000e+00 0.000000000000e+00
7.500000000000e+02 0.000000000000e+00 1.950000000000e+01 0.000000000000e+00 0.000000000000e+00 0.000000000000e+00
7.490000000000e+02 0.000000000000e+00 2.050000000000e+01 0.000000000000e+00 0.000000000000e+00 0.000000000000e+00
7.500000000000e+02 0.000000000000e+00 2.050000000000e+01 0.000000000000e+00 0.000000000000e+00 0.000000000000e+00
7.490000000000e+02 0.000000000000e+00 2.150000000000e+01 0.000000000000e+00 0.000000000000e+00 0.000000000000e+00
7.500000000000e+02 0.000000000000e+00 2.150000000000e+01 0.000000000000e+00 0.000000000000e+00 0.000000000000e+00
7.490000000000e+02 0.000000000000e+00 2.250000000000e+01 0.000000000000e+00 0.000000000000e+00 0.000000000000e+00
7.500000000000e+02 0.000000000000e+00 2.250000000000e+01 0.000000000000e+00 0.000000000000e+00 0.000000000000e+00
7.490000000000e+02 0.000000000000e+00 2.350000000000e+01 0.000000000000e+00 0.000000000000e+00 0.000000000000e+00
7.500000000000e+02 0.000000000000e+00 2.350000000000e+01 0.000000000000e+00 0.000000000000e+00 0.000000000000e+00
7.490000000000e+02 0.000000000000e+00 2.450000000000e+01 0.000000000000e+00 0.000000000000e+00 0.000000000000e+00
7.500000000000e+02 0.000000000000e+00 2.450000000000e+01 0.000000000000e+00 0.000000000000e+00 0.000000000000e+00
7.490000000000e+02 0.000000000000e+00 2.550000000000e+01 0.000000000000e+00 0.000000000000e+00 0.000000000000e+00
7.500000000000e+02 0.000000000000e+00 2.550000000000e+01 0.000000000000e+00 0.000000000000e+00 0.000000000000e+00
7.490000000000e+02 0.000000000000e+00 2.650000000000e+01 0.000000000000e+00 0.000000000000e+00 0.000000000000e+00
7.500000000000e+02 0.000000000000e+00 2.650000000000e+01 0.000000000000e+00 0.000000000000e+00 0.000000000000e+00
7.490000000000e+02 0.000000000000e+00 2.750000000000e+01 0.000000000000e+00 0.000000000000e+00 0.000000000000e+00
7.500000000000e+02 0.000000000000e+00 2.750000000000e+01 0.000000000000e+00 0.000000000000e+00 0.000000000000e+00
7.490000000000e+02 0.000000000000e+00 2.850000000000e+01 0.000000000000e+00 0.000000000000e+00 0.000000000000e+00
7.500000000000e+02 0.000000000000e+00 2.850000000000e+01 0.000000000000e+00 0.000000000000e+00 0.000000000000e+00
7.490000000000e+02 0.000000000000e+00 2.950000000000e+01 0.000000000000e+00 0.000000000000e+00 0.000000000000e+00
7.500000000000e+02 0.000000000000e+00 2.950000000000e+01 0.000000000000e+00 0.000000000000e+00 0.000000000000e+00
VARIABLES = "X","Y","Z",VELOCITY1_X,VELOCITY1_Y,VELOCITY1_Z
ZONE T="1.797693134862e+308s", 
7.490000000000e+02 0.000000000000e+00 5.000000000000e-01 3.295953295375e-09 -2.195441632751e-12 0.000000000000e+00
7.500000000000e+02 0.000000000000e+00 5.000000000000e-01 3.300343884080e-09 -2.195293001105e-12 0.000000000000e+00
7.490000000000e+02 0.000000000000e+00 1.500000000000e+00 1.234113851769e-08 -1.261205931382e-11 0.000000000000e+00
7.500000000000e+02 0.000000000000e+00 1.500000000000e+00 1.235757663886e-08 -1.261375005850e-11 0.000000000000e+00
7.490000000000e+02 0.000000000000e+00 2.500000000000e+00 1.277620430410e-09 -2.168468997033e-11 0.000000000000e+00
7.500000000000e+02 0.000000000000e+00 2.500000000000e+00 1.279322770001e-09 -2.168351121420e-11 0.000000000000e+00
7.490000000000e+02 0.000000000000e+00 3.500000000000e+00 9.217149706774e-09 -2.867478233637e-11 0.000000000000e+00
7.500000000000e+02 0.000000000000e+00 3.500000000000e+00 9.229429501987e-09 -2.867420947060e-11 0.000000000000e+00
7.490000000000e+02 0.000000000000e+00 4.500000000000e+00 5.687008555612e-08 -7.269964990154e-11 0.000000000000e+00
7.500000000000e+02 0.000000000000e+00 4.500000000000e+00 5.694585262109e-08 -7.269772105200e-11 0.000000000000e+00
7.490000000000e+02 0.000000000000e+00 5.500000000000e+00 2.150988854645e-08 -1.249146916823e-10 0.000000000000e+00
7.500000000000e+02 0.000000000000e+00 5.500000000000e+00 2.153854572981e-08 -1.249098094433e-10 0.000000000000e+00
7.490000000000e+02 0.000000000000e+00 6.500000000000e+00 1.842388978194e-08 -1.515178155732e-10 0.000000000000e+00
7.500000000000e+02 0.000000000000e+00 6.500000000000e+00 1.844843516899e-08 -1.515107098107e-10 0.000000000000e+00
7.490000000000e+02 0.000000000000e+00 7.500000000000e+00 1.525893207406e-10 -1.638928187070e-10 0.000000000000e+00
7.500000000000e+02 0.000000000000e+00 7.500000000000e+00 1.527926502454e-10 -1.638856432321e-10 0.000000000000e+00
7.490000000000e+02 0.000000000000e+00 8.500000000000e+00 6.736531457845e-10 -1.644437664398e-10 0.000000000000e+00
7.500000000000e+02 0.000000000000e+00 8.500000000000e+00 6.745516533042e-10 -1.644365395791e-10 0.000000000000e+00
7.490000000000e+02 0.000000000000e+00 9.500000000000e+00 1.760662578145e-08 -1.766337742445e-10 0.000000000000e+00
7.500000000000e+02 0.000000000000e+00 9.500000000000e+00 1.763010807128e-08 -1.766285144106e-10 0.000000000000e+00
7.490000000000e+02 0.000000000000e+00 1.050000000000e+01 1.124504316641e-09 -1.891272683095e-10 0.000000000000e+00
7.500000000000e+02 0.000000000000e+00 1.050000000000e+01 1.126004364864e-09 -1.891198330946e-10 0.000000000000e+00
7.490000000000e+02 0.000000000000e+00 1.150000000000e+01 5.057155141182e-08 -2.236057484353e-10 0.000000000000e+00
7.500000000000e+02 0.000000000000e+00 1.150000000000e+01 5.063901479960e-08 -2.236008168922e-10 0.000000000000e+00
7.490000000000e+02 0.000000000000e+00 1.250000000000e+01 2.425488508115e-09 -2.589592229346e-10 0.000000000000e+00
7.500000000000e+02 0.000000000000e+00 1.250000000000e+01 2.428724283470e-09 -2.589516763004e-10 0.000000000000e+00
7.490000000000e+02 0.000000000000e+00 1.350000000000e+01 1.976435780349e-08 -2.737628136116e-10 0.000000000000e+00
7.500000000000e+02 0.000000000000e+00 1.350000000000e+01 1.979072662914e-08 -2.737546829303e-10 0.000000000000e+00
7.490000000000e+02 0.000000000000e+00 1.450000000000e+01 1.123885365219e-06 -1.036587047241e-09 0.000000000000e+00
7.500000000000e+02 0.000000000000e+00 1.450000000000e+01 1.125384801149e-06 -1.036615877542e-09 0.000000000000e+00
7.490000000000e+02 0.000000000000e+00 1.550000000000e+01 1.411085793010e-08 -1.795808287195e-09 0.000000000000e+00
7.500000000000e+02 0.000000000000e+00 1.550000000000e+01 1.412968434054e-08 -1.795796838073e-09 0.000000000000e+00
7.490000000000e+02 0.000000000000e+00 1.650000000000e+01 4.035404577576e-07 -2.074424463409e-09 0.000000000000e+00
7.500000000000e+02 0.000000000000e+00 1.650000000000e+01 4.040788469141e-07 -2.074421727972e-09 0.000000000000e+00
7.490000000000e+02 0.000000000000e+00 1.750000000000e+01 4.788707042334e-08 -2.375564185190e-09 0.000000000000e+00
7.500000000000e+02 0.000000000000e+00 1.750000000000e+01 4.795095977527e-08 -2.375551101330e-09 0.000000000000e+00
7.490000000000e+02 0.000000000000e+00 1.850000000000e+01 4.724498464187e-07 -2.722675331660e-09 0.000000000000e+00
7.500000000000e+02 0.000000000000e+00 1.850000000000e+01 4.730801366448e-07 -2.722679848849e-09 0.000000000000e+00
7.490000000000e+02 0.000000000000e+00 1.950000000000e+01 3.820421989566e-08 -3.063337701878e-09 0.000000000000e+00
7.500000000000e+02 0.000000000000e+00 1.950000000000e+01 3.825519274873e-08 -3.063328634622e-09 0.000000000000e+00
7.490000000000e+02 0.000000000000e+00 2.050000000000e+01 2.634570350574e-09 -3.090577676746e-09 0.000000000000e+00
7.500000000000e+02 0.000000000000e+00 2.050000000000e+01 2.638086235708e-09 -3.090565308428e-09 0.000000000000e+00
7.490000000000e+02 0.000000000000e+00 2.150000000000e+01 9.285644859747e-09 -3.098529891735e-09 0.000000000000e+00
7.500000000000e+02 0.000000000000e+00 2.150000000000e+01 9.298036021319e-09 -3.098517666763e-09 0.000000000000e+00
7.490000000000e+02 0.000000000000e+00 2.250000000000e+01 1.207161828243e-07 -3.185271223342e-09 0.000000000000e+00
7.500000000000e+02 0.000000000000e+00 2.250000000000e+01 1.208772814647e-07 -3.185251366188e-09 0.000000000000e+00
7.490000000000e+02 0.000000000000e+00 2.350000000000e+01 7.384370026459e-08 -3.315079207005e-09 0.000000000000e+00
7.500000000000e+02 0.000000000000e+00 2.350000000000e+01 7.394224003825e-08 -3.315067249768e-09 0.000000000000e+00
7.490000000000e+02 0.000000000000e+00 2.450000000000e+01 3.750999302063e-08 -3.389372425923e-09 0.000000000000e+00
7.500000000000e+02 0.000000000000e+00 2.450000000000e+01 3.756004649319e-08 -3.389362055647e-09 0.000000000000e+00
7.490000000000e+02 0.000000000000e+00 2.550000000000e+01 2.661240004799e-07 -3.591955973123e-09 0.000000000000e+00
7.500000000000e+02 0.000000000000e+00 2.550000000000e+01 2.664791342916e-07 -3.591939231110e-09 0.000000000000e+00
7.490000000000e+02 0.000000000000e+00 2.650000000000e+01 6.507333558047e-07 -4.203707666336e-09 0.000000000000e+00
7.500000000000e+02 0.000000000000e+00 2.650000000000e+01 6.516017122333e-07 -4.203700638269e-09 0.000000000000e+00
7.490000000000e+02 0.000000000000e+00 2.750000000000e+01 8.331295230874e-07 -5.193725369560e-09 0.000000000000e+00
7.500000000000e+02 0.000000000000e+00 2.750000000000e+01 8.342412915842e-07 -5.193724126488e-09 0.000000000000e+00
7.490000000000e+02 0.000000000000e+00 2.850000000000e+01 2.713425387652e-09 -5.751408677324e-09 0.000000000000e+00
7.500000000000e+02 0.000000000000e+00 2.850000000000e+01 2.717046241090e-09 -5.751408581240e-09 0.000000000000e+00
7.490000000000e+02 0.000000000000e+00 2.950000000000e+01 1.228355528002e-08 -5.761414443471e-09 0.000000000000e+00
7.500000000000e+02 0.000000000000e+00 2.950000000000e+01 1.229994774891e-08 -5.761413868150e-09 0.000000000000e+00
