VARIABLES = "X","Y","Z",VELOCITY1_X,VELOCITY1_Y,VELOCITY1_Z
ZONE T="0.000000000000e+00s", 
0.000000000000e+00 0.000000000000e+00 5.000000000000e-01 0.000000000000e+00 0.000000000000e+00 0.000000000000e+00
0.000000000000e+00 0.000000000000e+00 1.500000000000e+00 0.000000000000e+00 0.000000000000e+00 0.000000000000e+00
0.000000000000e+00 0.000000000000e+00 2.500000000000e+00 0.000000000000e+00 0.000000000000e+00 0.000000000000e+00
0.000000000000e+00 0.000000000000e+00 3.500000000000e+00 0.000000000000e+00 0.000000000000e+00 0.000000000000e+00
0.000000000000e+00 0.000000000000e+00 4.500000000000e+00 0.000000000000e+00 0.000000000000e+00 0.000000000000e+00
0.000000000000e+00 0.000000000000e+00 5.500000000000e+00 0.000000000000e+00 0.000000000000e+00 0.000000000000e+00
0.000000000000e+00 0.000000000000e+00 6.500000000000e+00 0.000000000000e+00 0.000000000000e+00 0.000000000000e+00
0.000000000000e+00 0.000000000000e+00 7.500000000000e+00 0.000000000000e+00 0.000000000000e+00 0.000000000000e+00
0.000000000000e+00 0.000000000000e+00 8.500000000000e+00 0.000000000000e+00 0.000000000000e+00 0.000000000000e+00
0.000000000000e+00 0.000000000000e+00 9.500000000000e+00 0.000000000000e+00 0.000000000000e+00 0.000000000000e+00
0.000000000000e+00 0.000000000000e+00 1.050000000000e+01 0.000000000000e+00 0.000000000000e+00 0.000000000000e+00
0.000000000000e+00 0.000000000000e+00 1.150000000000e+01 0.000000000000e+00 0.000000000000e+00 0.000000000000e+00
0.000000000000e+00 0.000000000000e+00 1.250000000000e+01 0.000000000000e+00 0.000000000000e+00 0.000000000000e+00
0.000000000000e+00 0.000000000000e+00 1.350000000000e+01 0.000000000000e+00 0.000000000000e+00 0.000000000000e+00
0.000000000000e+00 0.000000000000e+00 1.450000000000e+01 0.000000000000e+00 0.000000000000e+00 0.000000000000e+00
0.000000000000e+00 0.000000000000e+00 1.550000000000e+01 0.000000000000e+00 0.000000000000e+00 0.000000000000e+00
0.000000000000e+00 0.000000000000e+00 1.650000000000e+01 0.000000000000e+00 0.000000000000e+00 0.000000000000e+00
0.000000000000e+00 0.000000000000e+00 1.750000000000e+01 0.000000000000e+00 0.000000000000e+00 0.000000000000e+00
0.000000000000e+00 0.000000000000e+00 1.850000000000e+01 0.000000000000e+00 0.000000000000e+00 0.000000000000e+00
0.000000000000e+00 0.000000000000e+00 1.950000000000e+01 0.000000000000e+00 0.000000000000e+00 0.000000000000e+00
0.000000000000e+00 0.000000000000e+00 2.050000000000e+01 0.000000000000e+00 0.000000000000e+00 0.000000000000e+00
0.000000000000e+00 0.000000000000e+00 2.150000000000e+01 0.000000000000e+00 0.000000000000e+00 0.000000000000e+00
0.000000000000e+00 0.000000000000e+00 2.250000000000e+01 0.000000000000e+00 0.000000000000e+00 0.000000000000e+00
0.000000000000e+00 0.000000000000e+00 2.350000000000e+01 0.000000000000e+00 0.000000000000e+00 0.000000000000e+00
0.000000000000e+00 0.000000000000e+00 2.450000000000e+01 0.000000000000e+00 0.000000000000e+00 0.000000000000e+00
0.000000000000e+00 0.000000000000e+00 2.550000000000e+01 0.000000000000e+00 0.000000000000e+00 0.000000000000e+00
0.000000000000e+00 0.000000000000e+00 2.650000000000e+01 0.000000000000e+00 0.000000000000e+00 0.000000000000e+00
0.000000000000e+00 0.000000000000e+00 2.750000000000e+01 0.000000000000e+00 0.000000000000e+00 0.000000000000e+00
0.000000000000e+00 0.000000000000e+00 2.850000000000e+01 0.000000000000e+00 0.000000000000e+00 0.000000000000e+00
0.000000000000e+00 0.000000000000e+00 2.950000000000e+01 0.000000000000e+00 0.000000000000e+00 0.000000000000e+00
VARIABLES = "X","Y","Z",VELOCITY1_X,VELOCITY1_Y,VELOCITY1_Z
ZONE T="1.797693134862e+308s", 
0.000000000000e+00 0.000000000000e+00 5.000000000000e-01 1.229022362868e-11 -1.229003389389e-11 0.000000000000e+00
0.000000000000e+00 0.000000000000e+00 1.500000000000e+00 2.548250816805e-11 -5.006562821449e-11 0.000000000000e+00
0.000000000000e+00 0.000000000000e+00 2.500000000000e+00 8.521926656617e-13 -7.640893401820e-11 0.000000000000e+00
0.000000000000e+00 0.000000000000e+00 3.500000000000e+00 3.151381760773e-10 -3.923848547018e-10 0.000000000000e+00
0.000000000000e+00 0.000000000000e+00 4.500000000000e+00 1.809772298682e-12 -7.094204980811e-10 0.000000000000e+00
0.000000000000e+00 0.000000000000e+00 5.500000000000e+00 5.557146185680e-10 -1.266918437836e-09 0.000000000000e+00
0.000000000000e+00 0.000000000000e+00 6.500000000000e+00 2.198416143529e-12 -1.824995040026e-09 0.000000000000e+00
0.000000000000e+00 0.000000000000e+00 7.500000000000e+00 2.691376993052e-10 -2.096319664553e-09 0.000000000000e+00
0.000000000000e+00 0.000000000000e+00 8.500000000000e+00 7.494783803634e-10 -3.115050954926e-09 0.000000000000e+00
0.000000000000e+00 0.000000000000e+00 9.500000000000e+00 8.048693807071e-11 -3.945625394988e-09 0.000000000000e+00
0.000000000000e+00 0.000000000000e+00 1.050000000000e+01 8.189801047527e-12 -4.034393460590e-09 0.000000000000e+00
0.000000000000e+00 0.000000000000e+00 1.150000000000e+01 1.434693349269e-11 -4.056933770637e-09 0.000000000000e+00
0.000000000000e+00 0.000000000000e+00 1.250000000000e+01 9.411621744399e-12 -4.080696140966e-09 0.000000000000e+00
0.000000000000e+00 0.000000000000e+00 1.350000000000e+01 1.318275981140e-11 -4.103293323097e-09 0.000000000000e+00
0.000000000000e+00 0.000000000000e+00 1.450000000000e+01 6.193416050620e-12 -4.122673207252e-09 0.000000000000e+00
0.000000000000e+00 0.000000000000e+00 1.550000000000e+01 2.501955737305e-11 -4.153887546202e-09 0.000000000000e+00
0.000000000000e+00 0.000000000000e+00 1.650000000000e+01 8.231915963826e-12 -4.187146475315e-09 0.000000000000e+00
0.000000000000e+00 0.000000000000e+00 1.750000000000e+01 3.194096087168e-11 -4.227321680577e-09 0.000000000000e+00
0.000000000000e+00 0.000000000000e+00 1.850000000000e+01 7.500052613476e-13 -4.260022057944e-09 0.000000000000e+00
0.000000000000e+00 0.000000000000e+00 1.950000000000e+01 4.493161277689e-13 -4.261221746532e-09 0.000000000000e+00
0.000000000000e+00 0.000000000000e+00 2.050000000000e+01 3.373235819874e-11 -4.295401559860e-09 0.000000000000e+00
0.000000000000e+00 0.000000000000e+00 2.150000000000e+01 1.757122854078e-12 -4.330903557635e-09 0.000000000000e+00
0.000000000000e+00 0.000000000000e+00 2.250000000000e+01 4.925461597867e-11 -4.381916617451e-09 0.000000000000e+00
0.000000000000e+00 0.000000000000e+00 2.350000000000e+01 4.340403118362e-10 -4.865208143456e-09 0.000000000000e+00
0.000000000000e+00 0.000000000000e+00 2.450000000000e+01 3.793089666580e-11 -5.337355971302e-09 0.000000000000e+00
0.000000000000e+00 0.000000000000e+00 2.550000000000e+01 1.174216912893e-11 -5.387055144896e-09 0.000000000000e+00
0.000000000000e+00 0.000000000000e+00 2.650000000000e+01 1.617694014901e-12 -5.400418464185e-09 0.000000000000e+00
0.000000000000e+00 0.000000000000e+00 2.750000000000e+01 1.775064530367e-10 -5.579531199768e-09 0.000000000000e+00
0.000000000000e+00 0.000000000000e+00 2.850000000000e+01 1.017732490012e-13 -5.757209723200e-09 0.000000000000e+00
0.000000000000e+00 0.000000000000e+00 2.950000000000e+01 6.148358124054e-12 -5.763459542749e-09 0.000000000000e+00
