VARIABLES = "X","Y","Z",VELOCITY1_X,VELOCITY1_Y,VELOCITY1_Z
ZONE T="0.000000000000e+00s", 
9.890000000000e+02 0.000000000000e+00 5.000000000000e-01 0.000000000000e+00 0.000000000000e+00 0.000000000000e+00
9.900000000000e+02 0.000000000000e+00 5.000000000000e-01 0.000000000000e+00 0.000000000000e+00 0.000000000000e+00
9.890000000000e+02 0.000000000000e+00 1.500000000000e+00 0.000000000000e+00 0.000000000000e+00 0.000000000000e+00
9.900000000000e+02 0.000000000000e+00 1.500000000000e+00 0.000000000000e+00 0.000000000000e+00 0.000000000000e+00
9.890000000000e+02 0.000000000000e+00 2.500000000000e+00 0.000000000000e+00 0.000000000000e+00 0.000000000000e+00
9.900000000000e+02 0.000000000000e+00 2.500000000000e+00 0.000000000000e+00 0.000000000000e+00 0.000000000000e+00
9.890000000000e+02 0.000000000000e+00 3.500000000000e+00 0.000000000000e+00 0.000000000000e+00 0.000000000000e+00
9.900000000000e+02 0.000000000000e+00 3.500000000000e+00 0.000000000000e+00 0.000000000000e+00 0.000000000000e+00
9.890000000000e+02 0.000000000000e+00 4.500000000000e+00 0.000000000000e+00 0.000000000000e+00 0.000000000000e+00
9.900000000000e+02 0.000000000000e+00 4.500000000000e+00 0.000000000000e+00 0.000000000000e+00 0.000000000000e+00
9.890000000000e+02 0.000000000000e+00 5.500000000000e+00 0.000000000000e+00 0.000000000000e+00 0.000000000000e+00
9.900000000000e+02 0.000000000000e+00 5.500000000000e+00 0.000000000000e+00 0.000000000000e+00 0.000000000000e+00
9.890000000000e+02 0.000000000000e+00 6.500000000000e+00 0.000000000000e+00 0.000000000000e+00 0.000000000000e+00
9.900000000000e+02 0.000000000000e+00 6.500000000000e+00 0.000000000000e+00 0.000000000000e+00 0.000000000000e+00
9.890000000000e+02 0.000000000000e+00 7.500000000000e+00 0.000000000000e+00 0.000000000000e+00 0.000000000000e+00
9.900000000000e+02 0.000000000000e+00 7.500000000000e+00 0.000000000000e+00 0.000000000000e+00 0.000000000000e+00
9.890000000000e+02 0.000000000000e+00 8.500000000000e+00 0.000000000000e+00 0.000000000000e+00 0.000000000000e+00
9.900000000000e+02 0.000000000000e+00 8.500000000000e+00 0.000000000000e+00 0.000000000000e+00 0.000000000000e+00
9.890000000000e+02 0.000000000000e+00 9.500000000000e+00 0.000000000000e+00 0.000000000000e+00 0.000000000000e+00
9.900000000000e+02 0.000000000000e+00 9.500000000000e+00 0.000000000000e+00 0.000000000000e+00 0.000000000000e+00
9.890000000000e+02 0.000000000000e+00 1.050000000000e+01 0.000000000000e+00 0.000000000000e+00 0.000000000000e+00
9.900000000000e+02 0.000000000000e+00 1.050000000000e+01 0.000000000000e+00 0.000000000000e+00 0.000000000000e+00
9.890000000000e+02 0.000000000000e+00 1.150000000000e+01 0.000000000000e+00 0.000000000000e+00 0.000000000000e+00
9.900000000000e+02 0.000000000000e+00 1.150000000000e+01 0.000000000000e+00 0.000000000000e+00 0.000000000000e+00
9.890000000000e+02 0.000000000000e+00 1.250000000000e+01 0.000000000000e+00 0.000000000000e+00 0.000000000000e+00
9.900000000000e+02 0.000000000000e+00 1.250000000000e+01 0.000000000000e+00 0.000000000000e+00 0.000000000000e+00
9.890000000000e+02 0.000000000000e+00 1.350000000000e+01 0.000000000000e+00 0.000000000000e+00 0.000000000000e+00
9.900000000000e+02 0.000000000000e+00 1.350000000000e+01 0.000000000000e+00 0.000000000000e+00 0.000000000000e+00
9.890000000000e+02 0.000000000000e+00 1.450000000000e+01 0.000000000000e+00 0.000000000000e+00 0.000000000000e+00
9.900000000000e+02 0.000000000000e+00 1.450000000000e+01 0.000000000000e+00 0.000000000000e+00 0.000000000000e+00
9.890000000000e+02 0.000000000000e+00 1.550000000000e+01 0.000000000000e+00 0.000000000000e+00 0.000000000000e+00
9.900000000000e+02 0.000000000000e+00 1.550000000000e+01 0.000000000000e+00 0.000000000000e+00 0.000000000000e+00
9.890000000000e+02 0.000000000000e+00 1.650000000000e+01 0.000000000000e+00 0.000000000000e+00 0.000000000000e+00
9.900000000000e+02 0.000000000000e+00 1.650000000000e+01 0.000000000000e+00 0.000000000000e+00 0.000000000000e+00
9.890000000000e+02 0.000000000000e+00 1.750000000000e+01 0.000000000000e+00 0.000000000000e+00 0.000000000000e+00
9.900000000000e+02 0.000000000000e+00 1.750000000000e+01 0.000000000000e+00 0.000000000000e+00 0.000000000000e+00
9.890000000000e+02 0.000000000000e+00 1.850000000000e+01 0.000000000000e+00 0.000000000000e+00 0.000000000000e+00
9.900000000000e+02 0.000000000000e+00 1.850000000000e+01 0.000000000000e+00 0.000000000000e+00 0.000000000000e+00
9.890000000000e+02 0.000000000000e+00 1.950000000000e+01 0.000000000000e+00 0.000000000000e+00 0.000000000000e+00
9.900000000000e+02 0.000000000000e+00 1.950000000000e+01 0.000000000000e+00 0.000000000000e+00 0.000000000000e+00
9.890000000000e+02 0.000000000000e+00 2.050000000000e+01 0.000000000000e+00 0.000000000000e+00 0.000000000000e+00
9.900000000000e+02 0.000000000000e+00 2.050000000000e+01 0.000000000000e+00 0.000000000000e+00 0.000000000000e+00
9.890000000000e+02 0.000000000000e+00 2.150000000000e+01 0.000000000000e+00 0.000000000000e+00 0.000000000000e+00
9.900000000000e+02 0.000000000000e+00 2.150000000000e+01 0.000000000000e+00 0.000000000000e+00 0.000000000000e+00
9.890000000000e+02 0.000000000000e+00 2.250000000000e+01 0.000000000000e+00 0.000000000000e+00 0.000000000000e+00
9.900000000000e+02 0.000000000000e+00 2.250000000000e+01 0.000000000000e+00 0.000000000000e+00 0.000000000000e+00
9.890000000000e+02 0.000000000000e+00 2.350000000000e+01 0.000000000000e+00 0.000000000000e+00 0.000000000000e+00
9.900000000000e+02 0.000000000000e+00 2.350000000000e+01 0.000000000000e+00 0.000000000000e+00 0.000000000000e+00
9.890000000000e+02 0.000000000000e+00 2.450000000000e+01 0.000000000000e+00 0.000000000000e+00 0.000000000000e+00
9.900000000000e+02 0.000000000000e+00 2.450000000000e+01 0.000000000000e+00 0.000000000000e+00 0.000000000000e+00
9.890000000000e+02 0.000000000000e+00 2.550000000000e+01 0.000000000000e+00 0.000000000000e+00 0.000000000000e+00
9.900000000000e+02 0.000000000000e+00 2.550000000000e+01 0.000000000000e+00 0.000000000000e+00 0.000000000000e+00
9.890000000000e+02 0.000000000000e+00 2.650000000000e+01 0.000000000000e+00 0.000000000000e+00 0.000000000000e+00
9.900000000000e+02 0.000000000000e+00 2.650000000000e+01 0.000000000000e+00 0.000000000000e+00 0.000000000000e+00
9.890000000000e+02 0.000000000000e+00 2.750000000000e+01 0.000000000000e+00 0.000000000000e+00 0.000000000000e+00
9.900000000000e+02 0.000000000000e+00 2.750000000000e+01 0.000000000000e+00 0.000000000000e+00 0.000000000000e+00
9.890000000000e+02 0.000000000000e+00 2.850000000000e+01 0.000000000000e+00 0.000000000000e+00 0.000000000000e+00
9.900000000000e+02 0.000000000000e+00 2.850000000000e+01 0.000000000000e+00 0.000000000000e+00 0.000000000000e+00
9.890000000000e+02 0.000000000000e+00 2.950000000000e+01 0.000000000000e+00 0.000000000000e+00 0.000000000000e+00
9.900000000000e+02 0.000000000000e+00 2.950000000000e+01 0.000000000000e+00 0.000000000000e+00 0.000000000000e+00
VARIABLES = "X","Y","Z",VELOCITY1_X,VELOCITY1_Y,VELOCITY1_Z
ZONE T="1.797693134862e+308s", 
9.890000000000e+02 0.000000000000e+00 5.000000000000e-01 2.304970977881e-08 -1.595689643495e-12 0.000000000000e+00
9.900000000000e+02 0.000000000000e+00 5.000000000000e-01 2.305264400394e-08 -1.450886466086e-12 0.000000000000e+00
9.890000000000e+02 0.000000000000e+00 1.500000000000e+00 4.779344338619e-08 -6.500857680104e-12 0.000000000000e+00
9.900000000000e+02 0.000000000000e+00 1.500000000000e+00 4.779952862694e-08 -5.910919948336e-12 0.000000000000e+00
9.890000000000e+02 0.000000000000e+00 2.500000000000e+00 1.598533867382e-09 -9.921853793887e-12 0.000000000000e+00
9.900000000000e+02 0.000000000000e+00 2.500000000000e+00 1.598737802263e-09 -9.021504617305e-12 0.000000000000e+00
9.890000000000e+02 0.000000000000e+00 3.500000000000e+00 5.913740998782e-07 -5.160582303378e-11 0.000000000000e+00
9.900000000000e+02 0.000000000000e+00 3.500000000000e+00 5.914505483781e-07 -4.692586132982e-11 0.000000000000e+00
9.890000000000e+02 0.000000000000e+00 4.500000000000e+00 3.397398967256e-09 -9.342675648636e-11 0.000000000000e+00
9.900000000000e+02 0.000000000000e+00 4.500000000000e+00 3.397841675884e-09 -8.495480847633e-11 0.000000000000e+00
9.890000000000e+02 0.000000000000e+00 5.500000000000e+00 1.045445476715e-06 -1.722514727807e-10 0.000000000000e+00
9.900000000000e+02 0.000000000000e+00 5.500000000000e+00 1.045590009695e-06 -1.566590319560e-10 0.000000000000e+00
9.890000000000e+02 0.000000000000e+00 6.500000000000e+00 4.138833665039e-09 -2.511693380828e-10 0.000000000000e+00
9.900000000000e+02 0.000000000000e+00 6.500000000000e+00 4.139417034144e-09 -2.284482794567e-10 0.000000000000e+00
9.890000000000e+02 0.000000000000e+00 7.500000000000e+00 5.091729151960e-07 -2.962440250086e-10 0.000000000000e+00
9.900000000000e+02 0.000000000000e+00 7.500000000000e+00 5.092552470126e-07 -2.694968415854e-10 0.000000000000e+00
9.890000000000e+02 0.000000000000e+00 8.500000000000e+00 1.418150248276e-06 -4.657441789583e-10 0.000000000000e+00
9.900000000000e+02 0.000000000000e+00 8.500000000000e+00 1.418379903742e-06 -4.238593180624e-10 0.000000000000e+00
9.890000000000e+02 0.000000000000e+00 9.500000000000e+00 1.523320709378e-07 -6.040128441086e-10 0.000000000000e+00
9.900000000000e+02 0.000000000000e+00 9.500000000000e+00 1.523568021193e-07 -5.497810831217e-10 0.000000000000e+00
9.890000000000e+02 0.000000000000e+00 1.050000000000e+01 1.551179081292e-08 -6.189980035645e-10 0.000000000000e+00
9.900000000000e+02 0.000000000000e+00 1.050000000000e+01 1.551438054701e-08 -5.634305780965e-10 0.000000000000e+00
9.890000000000e+02 0.000000000000e+00 1.150000000000e+01 2.725755585182e-08 -6.233462720520e-10 0.000000000000e+00
9.900000000000e+02 0.000000000000e+00 1.150000000000e+01 2.726270118179e-08 -5.673977199569e-10 0.000000000000e+00
9.890000000000e+02 0.000000000000e+00 1.250000000000e+01 1.791908720328e-08 -6.282595200762e-10 0.000000000000e+00
9.900000000000e+02 0.000000000000e+00 1.250000000000e+01 1.792272071071e-08 -5.718838307532e-10 0.000000000000e+00
9.890000000000e+02 0.000000000000e+00 1.350000000000e+01 2.517476998302e-08 -6.334182934539e-10 0.000000000000e+00
9.900000000000e+02 0.000000000000e+00 1.350000000000e+01 2.518037167215e-08 -5.765991066922e-10 0.000000000000e+00
9.890000000000e+02 0.000000000000e+00 1.450000000000e+01 1.185758763333e-08 -6.381464893692e-10 0.000000000000e+00
9.900000000000e+02 0.000000000000e+00 1.450000000000e+01 1.186042451834e-08 -5.809237848083e-10 0.000000000000e+00
9.890000000000e+02 0.000000000000e+00 1.550000000000e+01 4.811092746406e-08 -6.468280348380e-10 0.000000000000e+00
9.900000000000e+02 0.000000000000e+00 1.550000000000e+01 4.812384550151e-08 -5.888746692314e-10 0.000000000000e+00
9.890000000000e+02 0.000000000000e+00 1.650000000000e+01 1.585368885043e-08 -6.563700353463e-10 0.000000000000e+00
9.900000000000e+02 0.000000000000e+00 1.650000000000e+01 1.585810826844e-08 -5.976164030294e-10 0.000000000000e+00
9.890000000000e+02 0.000000000000e+00 1.750000000000e+01 6.172125931788e-08 -6.690275067367e-10 0.000000000000e+00
9.900000000000e+02 0.000000000000e+00 1.750000000000e+01 6.173994666749e-08 -6.092242284693e-10 0.000000000000e+00
9.890000000000e+02 0.000000000000e+00 1.850000000000e+01 1.457456479498e-09 -6.795804548309e-10 0.000000000000e+00
9.900000000000e+02 0.000000000000e+00 1.850000000000e+01 1.457959916667e-09 -6.189049646700e-10 0.000000000000e+00
9.890000000000e+02 0.000000000000e+00 1.950000000000e+01 9.121850287950e-10 -6.803840316647e-10 0.000000000000e+00
9.900000000000e+02 0.000000000000e+00 1.950000000000e+01 9.128012697228e-10 -6.196474169599e-10 0.000000000000e+00
9.890000000000e+02 0.000000000000e+00 2.050000000000e+01 7.252626529647e-08 -7.232169960023e-10 0.000000000000e+00
9.900000000000e+02 0.000000000000e+00 2.050000000000e+01 7.260530970091e-08 -6.593505524590e-10 0.000000000000e+00
9.890000000000e+02 0.000000000000e+00 2.150000000000e+01 3.788804133546e-09 -7.680714670717e-10 0.000000000000e+00
9.900000000000e+02 0.000000000000e+00 2.150000000000e+01 3.793055312208e-09 -7.009348489551e-10 0.000000000000e+00
9.890000000000e+02 0.000000000000e+00 2.250000000000e+01 1.078701162040e-07 -8.461688123950e-10 0.000000000000e+00
9.900000000000e+02 0.000000000000e+00 2.250000000000e+01 1.080117980253e-07 -7.737272167672e-10 0.000000000000e+00
9.890000000000e+02 0.000000000000e+00 2.350000000000e+01 9.511631617894e-07 -1.592744854745e-09 0.000000000000e+00
9.900000000000e+02 0.000000000000e+00 2.350000000000e+01 9.524226604172e-07 -1.469871911346e-09 0.000000000000e+00
9.890000000000e+02 0.000000000000e+00 2.450000000000e+01 8.316092903113e-08 -2.324768793678e-09 0.000000000000e+00
9.900000000000e+02 0.000000000000e+00 2.450000000000e+01 8.327248954574e-08 -2.152666378259e-09 0.000000000000e+00
9.890000000000e+02 0.000000000000e+00 2.550000000000e+01 2.581143642223e-08 -2.407929657439e-09 0.000000000000e+00
9.900000000000e+02 0.000000000000e+00 2.550000000000e+01 2.584967437700e-08 -2.230723295666e-09 0.000000000000e+00
9.890000000000e+02 0.000000000000e+00 2.650000000000e+01 3.597270222487e-09 -2.435870912178e-09 0.000000000000e+00
9.900000000000e+02 0.000000000000e+00 2.650000000000e+01 3.604885301267e-09 -2.257372535695e-09 0.000000000000e+00
9.890000000000e+02 0.000000000000e+00 2.750000000000e+01 4.119747321966e-07 -3.362413454705e-09 0.000000000000e+00
9.900000000000e+02 0.000000000000e+00 2.750000000000e+01 4.137946271987e-07 -3.175518468628e-09 0.000000000000e+00
9.890000000000e+02 0.000000000000e+00 2.850000000000e+01 2.579030295976e-10 -4.289435262277e-09 0.000000000000e+00
9.900000000000e+02 0.000000000000e+00 2.850000000000e+01 2.618945441598e-10 -4.095057105183e-09 0.000000000000e+00
9.890000000000e+02 0.000000000000e+00 2.950000000000e+01 2.585013608986e-08 -5.032693120466e-09 0.000000000000e+00
9.900000000000e+02 0.000000000000e+00 2.950000000000e+01 2.749027331852e-08 -4.935902088139e-09 0.000000000000e+00
