VARIABLES = "X","Y","Z",VELOCITY1_X,VELOCITY1_Y,VELOCITY1_Z
ZONE T="0.000000000000e+00s", 
4.900000000000e+01 0.000000000000e+00 5.000000000000e-01 0.000000000000e+00 0.000000000000e+00 0.000000000000e+00
5.000000000000e+01 0.000000000000e+00 5.000000000000e-01 0.000000000000e+00 0.000000000000e+00 0.000000000000e+00
4.900000000000e+01 0.000000000000e+00 1.500000000000e+00 0.000000000000e+00 0.000000000000e+00 0.000000000000e+00
5.000000000000e+01 0.000000000000e+00 1.500000000000e+00 0.000000000000e+00 0.000000000000e+00 0.000000000000e+00
4.900000000000e+01 0.000000000000e+00 2.500000000000e+00 0.000000000000e+00 0.000000000000e+00 0.000000000000e+00
5.000000000000e+01 0.000000000000e+00 2.500000000000e+00 0.000000000000e+00 0.000000000000e+00 0.000000000000e+00
4.900000000000e+01 0.000000000000e+00 3.500000000000e+00 0.000000000000e+00 0.000000000000e+00 0.000000000000e+00
5.000000000000e+01 0.000000000000e+00 3.500000000000e+00 0.000000000000e+00 0.000000000000e+00 0.000000000000e+00
4.900000000000e+01 0.000000000000e+00 4.500000000000e+00 0.000000000000e+00 0.000000000000e+00 0.000000000000e+00
5.000000000000e+01 0.000000000000e+00 4.500000000000e+00 0.000000000000e+00 0.000000000000e+00 0.000000000000e+00
4.900000000000e+01 0.000000000000e+00 5.500000000000e+00 0.000000000000e+00 0.000000000000e+00 0.000000000000e+00
5.000000000000e+01 0.000000000000e+00 5.500000000000e+00 0.000000000000e+00 0.000000000000e+00 0.000000000000e+00
4.900000000000e+01 0.000000000000e+00 6.500000000000e+00 0.000000000000e+00 0.000000000000e+00 0.000000000000e+00
5.000000000000e+01 0.000000000000e+00 6.500000000000e+00 0.000000000000e+00 0.000000000000e+00 0.000000000000e+00
4.900000000000e+01 0.000000000000e+00 7.500000000000e+00 0.000000000000e+00 0.000000000000e+00 0.000000000000e+00
5.000000000000e+01 0.000000000000e+00 7.500000000000e+00 0.000000000000e+00 0.000000000000e+00 0.000000000000e+00
4.900000000000e+01 0.000000000000e+00 8.500000000000e+00 0.000000000000e+00 0.000000000000e+00 0.000000000000e+00
5.000000000000e+01 0.000000000000e+00 8.500000000000e+00 0.000000000000e+00 0.000000000000e+00 0.000000000000e+00
4.900000000000e+01 0.000000000000e+00 9.500000000000e+00 0.000000000000e+00 0.000000000000e+00 0.000000000000e+00
5.000000000000e+01 0.000000000000e+00 9.500000000000e+00 0.000000000000e+00 0.000000000000e+00 0.000000000000e+00
4.900000000000e+01 0.000000000000e+00 1.050000000000e+01 0.000000000000e+00 0.000000000000e+00 0.000000000000e+00
5.000000000000e+01 0.000000000000e+00 1.050000000000e+01 0.000000000000e+00 0.000000000000e+00 0.000000000000e+00
4.900000000000e+01 0.000000000000e+00 1.150000000000e+01 0.000000000000e+00 0.000000000000e+00 0.000000000000e+00
5.000000000000e+01 0.000000000000e+00 1.150000000000e+01 0.000000000000e+00 0.000000000000e+00 0.000000000000e+00
4.900000000000e+01 0.000000000000e+00 1.250000000000e+01 0.000000000000e+00 0.000000000000e+00 0.000000000000e+00
5.000000000000e+01 0.000000000000e+00 1.250000000000e+01 0.000000000000e+00 0.000000000000e+00 0.000000000000e+00
4.900000000000e+01 0.000000000000e+00 1.350000000000e+01 0.000000000000e+00 0.000000000000e+00 0.000000000000e+00
5.000000000000e+01 0.000000000000e+00 1.350000000000e+01 0.000000000000e+00 0.000000000000e+00 0.000000000000e+00
4.900000000000e+01 0.000000000000e+00 1.450000000000e+01 0.000000000000e+00 0.000000000000e+00 0.000000000000e+00
5.000000000000e+01 0.000000000000e+00 1.450000000000e+01 0.000000000000e+00 0.000000000000e+00 0.000000000000e+00
4.900000000000e+01 0.000000000000e+00 1.550000000000e+01 0.000000000000e+00 0.000000000000e+00 0.000000000000e+00
5.000000000000e+01 0.000000000000e+00 1.550000000000e+01 0.000000000000e+00 0.000000000000e+00 0.000000000000e+00
4.900000000000e+01 0.000000000000e+00 1.650000000000e+01 0.000000000000e+00 0.000000000000e+00 0.000000000000e+00
5.000000000000e+01 0.000000000000e+00 1.650000000000e+01 0.000000000000e+00 0.000000000000e+00 0.000000000000e+00
4.900000000000e+01 0.000000000000e+00 1.750000000000e+01 0.000000000000e+00 0.000000000000e+00 0.000000000000e+00
5.000000000000e+01 0.000000000000e+00 1.750000000000e+01 0.000000000000e+00 0.000000000000e+00 0.000000000000e+00
4.900000000000e+01 0.000000000000e+00 1.850000000000e+01 0.000000000000e+00 0.000000000000e+00 0.000000000000e+00
5.000000000000e+01 0.000000000000e+00 1.850000000000e+01 0.000000000000e+00 0.000000000000e+00 0.000000000000e+00
4.900000000000e+01 0.000000000000e+00 1.950000000000e+01 0.000000000000e+00 0.000000000000e+00 0.000000000000e+00
5.000000000000e+01 0.000000000000e+00 1.950000000000e+01 0.000000000000e+00 0.000000000000e+00 0.000000000000e+00
4.900000000000e+01 0.000000000000e+00 2.050000000000e+01 0.000000000000e+00 0.000000000000e+00 0.000000000000e+00
5.000000000000e+01 0.000000000000e+00 2.050000000000e+01 0.000000000000e+00 0.000000000000e+00 0.000000000000e+00
4.900000000000e+01 0.000000000000e+00 2.150000000000e+01 0.000000000000e+00 0.000000000000e+00 0.000000000000e+00
5.000000000000e+01 0.000000000000e+00 2.150000000000e+01 0.000000000000e+00 0.000000000000e+00 0.000000000000e+00
4.900000000000e+01 0.000000000000e+00 2.250000000000e+01 0.000000000000e+00 0.000000000000e+00 0.000000000000e+00
5.000000000000e+01 0.000000000000e+00 2.250000000000e+01 0.000000000000e+00 0.000000000000e+00 0.000000000000e+00
4.900000000000e+01 0.000000000000e+00 2.350000000000e+01 0.000000000000e+00 0.000000000000e+00 0.000000000000e+00
5.000000000000e+01 0.000000000000e+00 2.350000000000e+01 0.000000000000e+00 0.000000000000e+00 0.000000000000e+00
4.900000000000e+01 0.000000000000e+00 2.450000000000e+01 0.000000000000e+00 0.000000000000e+00 0.000000000000e+00
5.000000000000e+01 0.000000000000e+00 2.450000000000e+01 0.000000000000e+00 0.000000000000e+00 0.000000000000e+00
4.900000000000e+01 0.000000000000e+00 2.550000000000e+01 0.000000000000e+00 0.000000000000e+00 0.000000000000e+00
5.000000000000e+01 0.000000000000e+00 2.550000000000e+01 0.000000000000e+00 0.000000000000e+00 0.000000000000e+00
4.900000000000e+01 0.000000000000e+00 2.650000000000e+01 0.000000000000e+00 0.000000000000e+00 0.000000000000e+00
5.000000000000e+01 0.000000000000e+00 2.650000000000e+01 0.000000000000e+00 0.000000000000e+00 0.000000000000e+00
4.900000000000e+01 0.000000000000e+00 2.750000000000e+01 0.000000000000e+00 0.000000000000e+00 0.000000000000e+00
5.000000000000e+01 0.000000000000e+00 2.750000000000e+01 0.000000000000e+00 0.000000000000e+00 0.000000000000e+00
4.900000000000e+01 0.000000000000e+00 2.850000000000e+01 0.000000000000e+00 0.000000000000e+00 0.000000000000e+00
5.000000000000e+01 0.000000000000e+00 2.850000000000e+01 0.000000000000e+00 0.000000000000e+00 0.000000000000e+00
4.900000000000e+01 0.000000000000e+00 2.950000000000e+01 0.000000000000e+00 0.000000000000e+00 0.000000000000e+00
5.000000000000e+01 0.000000000000e+00 2.950000000000e+01 0.000000000000e+00 0.000000000000e+00 0.000000000000e+00
VARIABLES = "X","Y","Z",VELOCITY1_X,VELOCITY1_Y,VELOCITY1_Z
ZONE T="1.797693134862e+308s", 
4.900000000000e+01 0.000000000000e+00 5.000000000000e-01 1.216673427786e-09 -1.229018849407e-11 0.000000000000e+00
5.000000000000e+01 0.000000000000e+00 5.000000000000e-01 1.241252350065e-09 -1.229021732855e-11 0.000000000000e+00
4.900000000000e+01 0.000000000000e+00 1.500000000000e+00 2.522747873281e-09 -5.006776386407e-11 0.000000000000e+00
5.000000000000e+01 0.000000000000e+00 1.500000000000e+00 2.573711785879e-09 -5.006782021193e-11 0.000000000000e+00
4.900000000000e+01 0.000000000000e+00 2.500000000000e+00 8.437136118417e-11 -7.640935334928e-11 0.000000000000e+00
5.000000000000e+01 0.000000000000e+00 2.500000000000e+00 8.607581107780e-11 -7.640933934144e-11 0.000000000000e+00
4.900000000000e+01 0.000000000000e+00 3.500000000000e+00 3.119739179479e-08 -3.924017181987e-10 0.000000000000e+00
5.000000000000e+01 0.000000000000e+00 3.500000000000e+00 3.182763540998e-08 -3.924015885574e-10 0.000000000000e+00
4.900000000000e+01 0.000000000000e+00 4.500000000000e+00 1.791750128512e-10 -7.094241068126e-10 0.000000000000e+00
5.000000000000e+01 0.000000000000e+00 4.500000000000e+00 1.827946709642e-10 -7.094242055489e-10 0.000000000000e+00
4.900000000000e+01 0.000000000000e+00 5.500000000000e+00 5.501382965153e-08 -1.266955201349e-09 0.000000000000e+00
5.000000000000e+01 0.000000000000e+00 5.500000000000e+00 5.612520650548e-08 -1.266954761987e-09 0.000000000000e+00
4.900000000000e+01 0.000000000000e+00 6.500000000000e+00 2.176576942925e-10 -1.825003679571e-09 0.000000000000e+00
5.000000000000e+01 0.000000000000e+00 6.500000000000e+00 2.220547617764e-10 -1.825003905154e-09 0.000000000000e+00
4.900000000000e+01 0.000000000000e+00 7.500000000000e+00 2.664704825125e-08 -2.096378110518e-09 0.000000000000e+00
5.000000000000e+01 0.000000000000e+00 7.500000000000e+00 2.718536315387e-08 -2.096376482405e-09 0.000000000000e+00
4.900000000000e+01 0.000000000000e+00 8.500000000000e+00 7.421375616156e-08 -3.115308953107e-09 0.000000000000e+00
5.000000000000e+01 0.000000000000e+00 8.500000000000e+00 7.571299512361e-08 -3.115303999480e-09 0.000000000000e+00
4.900000000000e+01 0.000000000000e+00 9.500000000000e+00 7.971219138527e-09 -3.945676126326e-09 0.000000000000e+00
5.000000000000e+01 0.000000000000e+00 9.500000000000e+00 8.132250832016e-09 -3.945676894402e-09 0.000000000000e+00
4.900000000000e+01 0.000000000000e+00 1.050000000000e+01 8.111159716925e-10 -4.034404250867e-09 0.000000000000e+00
5.000000000000e+01 0.000000000000e+00 1.050000000000e+01 8.275019265680e-10 -4.034404896865e-09 0.000000000000e+00
4.900000000000e+01 0.000000000000e+00 1.150000000000e+01 1.420463177391e-09 -4.056946947194e-09 0.000000000000e+00
5.000000000000e+01 0.000000000000e+00 1.150000000000e+01 1.449159112134e-09 -4.056947503715e-09 0.000000000000e+00
4.900000000000e+01 0.000000000000e+00 1.250000000000e+01 9.317839351031e-10 -4.080710786954e-09 0.000000000000e+00
5.000000000000e+01 0.000000000000e+00 1.250000000000e+01 9.506076829422e-10 -4.080711325048e-09 0.000000000000e+00
4.900000000000e+01 0.000000000000e+00 1.350000000000e+01 1.305101983761e-09 -4.103308506475e-09 0.000000000000e+00
5.000000000000e+01 0.000000000000e+00 1.350000000000e+01 1.331467473216e-09 -4.103309036442e-09 0.000000000000e+00
4.900000000000e+01 0.000000000000e+00 1.450000000000e+01 6.131557480536e-10 -4.122688419343e-09 0.000000000000e+00
5.000000000000e+01 0.000000000000e+00 1.450000000000e+01 6.255426472037e-10 -4.122688940526e-09 0.000000000000e+00
4.900000000000e+01 0.000000000000e+00 1.550000000000e+01 2.476878565351e-09 -4.153903656620e-09 0.000000000000e+00
5.000000000000e+01 0.000000000000e+00 1.550000000000e+01 2.526916236679e-09 -4.153904181712e-09 0.000000000000e+00
4.900000000000e+01 0.000000000000e+00 1.650000000000e+01 8.149788909436e-10 -4.187162274261e-09 0.000000000000e+00
5.000000000000e+01 0.000000000000e+00 1.650000000000e+01 8.314430267460e-10 -4.187162786707e-09 0.000000000000e+00
4.900000000000e+01 0.000000000000e+00 1.750000000000e+01 3.162121805671e-09 -4.227338892346e-09 0.000000000000e+00
5.000000000000e+01 0.000000000000e+00 1.750000000000e+01 3.226002802664e-09 -4.227339412826e-09 0.000000000000e+00
4.900000000000e+01 0.000000000000e+00 1.850000000000e+01 7.425497046558e-11 -4.260037809900e-09 0.000000000000e+00
5.000000000000e+01 0.000000000000e+00 1.850000000000e+01 7.575506712625e-11 -4.260038304942e-09 0.000000000000e+00
4.900000000000e+01 0.000000000000e+00 1.950000000000e+01 4.448383350475e-11 -4.261237375867e-09 0.000000000000e+00
5.000000000000e+01 0.000000000000e+00 1.950000000000e+01 4.538250357233e-11 -4.261237870518e-09 0.000000000000e+00
4.900000000000e+01 0.000000000000e+00 2.050000000000e+01 3.339340609114e-09 -4.295420176305e-09 0.000000000000e+00
5.000000000000e+01 0.000000000000e+00 2.050000000000e+01 3.406803427342e-09 -4.295420646388e-09 0.000000000000e+00
4.900000000000e+01 0.000000000000e+00 2.150000000000e+01 1.739649324971e-10 -4.330918848213e-09 0.000000000000e+00
5.000000000000e+01 0.000000000000e+00 2.150000000000e+01 1.774794501009e-10 -4.330919347306e-09 0.000000000000e+00
4.900000000000e+01 0.000000000000e+00 2.250000000000e+01 4.875978579287e-09 -4.381933090748e-09 0.000000000000e+00
5.000000000000e+01 0.000000000000e+00 2.250000000000e+01 4.974485622274e-09 -4.381933537795e-09 0.000000000000e+00
4.900000000000e+01 0.000000000000e+00 2.350000000000e+01 4.296859570235e-08 -4.865268809714e-09 0.000000000000e+00
5.000000000000e+01 0.000000000000e+00 2.350000000000e+01 4.383667027586e-08 -4.865268594882e-09 0.000000000000e+00
4.900000000000e+01 0.000000000000e+00 2.450000000000e+01 3.755478300543e-09 -5.337370788573e-09 0.000000000000e+00
5.000000000000e+01 0.000000000000e+00 2.450000000000e+01 3.831348620804e-09 -5.337370979020e-09 0.000000000000e+00
4.900000000000e+01 0.000000000000e+00 2.550000000000e+01 1.162604980393e-09 -5.387059699276e-09 0.000000000000e+00
5.000000000000e+01 0.000000000000e+00 2.550000000000e+01 1.186092644226e-09 -5.387059871318e-09 0.000000000000e+00
4.900000000000e+01 0.000000000000e+00 2.650000000000e+01 1.601592403886e-10 -5.400422921997e-09 0.000000000000e+00
5.000000000000e+01 0.000000000000e+00 2.650000000000e+01 1.633948765328e-10 -5.400423072279e-09 0.000000000000e+00
4.900000000000e+01 0.000000000000e+00 2.750000000000e+01 1.757242364030e-08 -5.579555483846e-09 0.000000000000e+00
5.000000000000e+01 0.000000000000e+00 2.750000000000e+01 1.792743292952e-08 -5.579555893468e-09 0.000000000000e+00
4.900000000000e+01 0.000000000000e+00 2.850000000000e+01 1.007633079222e-11 -5.757209946261e-09 0.000000000000e+00
5.000000000000e+01 0.000000000000e+00 2.850000000000e+01 1.027989949260e-11 -5.757209951544e-09 0.000000000000e+00
4.900000000000e+01 0.000000000000e+00 2.950000000000e+01 6.086635588724e-10 -5.763460349306e-09 0.000000000000e+00
5.000000000000e+01 0.000000000000e+00 2.950000000000e+01 6.209602020055e-10 -5.763460444000e-09 0.000000000000e+00
