VARIABLES = "X","Y","Z",VELOCITY1_X,VELOCITY1_Y,VELOCITY1_Z
ZONE T="0.000000000000e+00s", 
9.990000000000e+02 0.000000000000e+00 5.000000000000e-01 0.000000000000e+00 0.000000000000e+00 0.000000000000e+00
9.990000000000e+02 0.000000000000e+00 1.500000000000e+00 0.000000000000e+00 0.000000000000e+00 0.000000000000e+00
9.990000000000e+02 0.000000000000e+00 2.500000000000e+00 0.000000000000e+00 0.000000000000e+00 0.000000000000e+00
9.990000000000e+02 0.000000000000e+00 3.500000000000e+00 0.000000000000e+00 0.000000000000e+00 0.000000000000e+00
9.990000000000e+02 0.000000000000e+00 4.500000000000e+00 0.000000000000e+00 0.000000000000e+00 0.000000000000e+00
9.990000000000e+02 0.000000000000e+00 5.500000000000e+00 0.000000000000e+00 0.000000000000e+00 0.000000000000e+00
9.990000000000e+02 0.000000000000e+00 6.500000000000e+00 0.000000000000e+00 0.000000000000e+00 0.000000000000e+00
9.990000000000e+02 0.000000000000e+00 7.500000000000e+00 0.000000000000e+00 0.000000000000e+00 0.000000000000e+00
9.990000000000e+02 0.000000000000e+00 8.500000000000e+00 0.000000000000e+00 0.000000000000e+00 0.000000000000e+00
9.990000000000e+02 0.000000000000e+00 9.500000000000e+00 0.000000000000e+00 0.000000000000e+00 0.000000000000e+00
9.990000000000e+02 0.000000000000e+00 1.050000000000e+01 0.000000000000e+00 0.000000000000e+00 0.000000000000e+00
9.990000000000e+02 0.000000000000e+00 1.150000000000e+01 0.000000000000e+00 0.000000000000e+00 0.000000000000e+00
9.990000000000e+02 0.000000000000e+00 1.250000000000e+01 0.000000000000e+00 0.000000000000e+00 0.000000000000e+00
9.990000000000e+02 0.000000000000e+00 1.350000000000e+01 0.000000000000e+00 0.000000000000e+00 0.000000000000e+00
9.990000000000e+02 0.000000000000e+00 1.450000000000e+01 0.000000000000e+00 0.000000000000e+00 0.000000000000e+00
9.990000000000e+02 0.000000000000e+00 1.550000000000e+01 0.000000000000e+00 0.000000000000e+00 0.000000000000e+00
9.990000000000e+02 0.000000000000e+00 1.650000000000e+01 0.000000000000e+00 0.000000000000e+00 0.000000000000e+00
9.990000000000e+02 0.000000000000e+00 1.750000000000e+01 0.000000000000e+00 0.000000000000e+00 0.000000000000e+00
9.990000000000e+02 0.000000000000e+00 1.850000000000e+01 0.000000000000e+00 0.000000000000e+00 0.000000000000e+00
9.990000000000e+02 0.000000000000e+00 1.950000000000e+01 0.000000000000e+00 0.000000000000e+00 0.000000000000e+00
9.990000000000e+02 0.000000000000e+00 2.050000000000e+01 0.000000000000e+00 0.000000000000e+00 0.000000000000e+00
9.990000000000e+02 0.000000000000e+00 2.150000000000e+01 0.000000000000e+00 0.000000000000e+00 0.000000000000e+00
9.990000000000e+02 0.000000000000e+00 2.250000000000e+01 0.000000000000e+00 0.000000000000e+00 0.000000000000e+00
9.990000000000e+02 0.000000000000e+00 2.350000000000e+01 0.000000000000e+00 0.000000000000e+00 0.000000000000e+00
9.990000000000e+02 0.000000000000e+00 2.450000000000e+01 0.000000000000e+00 0.000000000000e+00 0.000000000000e+00
9.990000000000e+02 0.000000000000e+00 2.550000000000e+01 0.000000000000e+00 0.000000000000e+00 0.000000000000e+00
9.990000000000e+02 0.000000000000e+00 2.650000000000e+01 0.000000000000e+00 0.000000000000e+00 0.000000000000e+00
9.990000000000e+02 0.000000000000e+00 2.750000000000e+01 0.000000000000e+00 0.000000000000e+00 0.000000000000e+00
9.990000000000e+02 0.000000000000e+00 2.850000000000e+01 0.000000000000e+00 0.000000000000e+00 0.000000000000e+00
9.990000000000e+02 0.000000000000e+00 2.950000000000e+01 0.000000000000e+00 0.000000000000e+00 0.000000000000e+00
VARIABLES = "X","Y","Z",VELOCITY1_X,VELOCITY1_Y,VELOCITY1_Z
ZONE T="1.797693134862e+308s", 
9.990000000000e+02 0.000000000000e+00 5.000000000000e-01 2.306589025299e-08 -1.309401149243e-13 0.000000000000e+00
9.990000000000e+02 0.000000000000e+00 1.500000000000e+00 4.782699977929e-08 -5.335081303963e-13 0.000000000000e+00
9.990000000000e+02 0.000000000000e+00 2.500000000000e+00 1.599658473320e-09 -8.142671811729e-13 0.000000000000e+00
9.990000000000e+02 0.000000000000e+00 3.500000000000e+00 5.917957555048e-07 -4.236663416090e-12 0.000000000000e+00
9.990000000000e+02 0.000000000000e+00 4.500000000000e+00 3.399840999880e-09 -7.670328699278e-12 0.000000000000e+00
9.990000000000e+02 0.000000000000e+00 5.500000000000e+00 1.046243321715e-06 -1.415638129940e-11 0.000000000000e+00
9.990000000000e+02 0.000000000000e+00 6.500000000000e+00 4.142055014351e-09 -2.064981868163e-11 0.000000000000e+00
9.990000000000e+02 0.000000000000e+00 7.500000000000e+00 5.096285291817e-07 -2.438307181945e-11 0.000000000000e+00
9.990000000000e+02 0.000000000000e+00 8.500000000000e+00 1.419421173824e-06 -3.842236735566e-11 0.000000000000e+00
9.990000000000e+02 0.000000000000e+00 9.500000000000e+00 1.524689450169e-07 -4.987543338560e-11 0.000000000000e+00
9.990000000000e+02 0.000000000000e+00 1.050000000000e+01 1.552613572840e-08 -5.111813028241e-11 0.000000000000e+00
9.990000000000e+02 0.000000000000e+00 1.150000000000e+01 2.728615514765e-08 -5.148227558366e-11 0.000000000000e+00
9.990000000000e+02 0.000000000000e+00 1.250000000000e+01 1.793932111485e-08 -5.189567278334e-11 0.000000000000e+00
9.990000000000e+02 0.000000000000e+00 1.350000000000e+01 2.520603611593e-08 -5.233250446976e-11 0.000000000000e+00
9.990000000000e+02 0.000000000000e+00 1.450000000000e+01 1.187344971389e-08 -5.273454181650e-11 0.000000000000e+00
9.990000000000e+02 0.000000000000e+00 1.550000000000e+01 4.818335019042e-08 -5.347850916859e-11 0.000000000000e+00
9.990000000000e+02 0.000000000000e+00 1.650000000000e+01 1.587848926933e-08 -5.429784878668e-11 0.000000000000e+00
9.990000000000e+02 0.000000000000e+00 1.750000000000e+01 6.182635791147e-08 -5.539165798527e-11 0.000000000000e+00
9.990000000000e+02 0.000000000000e+00 1.850000000000e+01 1.460299920322e-09 -5.630536072917e-11 0.000000000000e+00
9.990000000000e+02 0.000000000000e+00 1.950000000000e+01 9.157183399196e-10 -5.637817434355e-11 0.000000000000e+00
9.990000000000e+02 0.000000000000e+00 2.050000000000e+01 7.298234305871e-08 -6.033916515656e-11 0.000000000000e+00
9.990000000000e+02 0.000000000000e+00 2.150000000000e+01 3.813395309413e-09 -6.449301207143e-11 0.000000000000e+00
9.990000000000e+02 0.000000000000e+00 2.250000000000e+01 1.087008768207e-07 -7.204536203066e-11 0.000000000000e+00
9.990000000000e+02 0.000000000000e+00 2.350000000000e+01 9.585582761049e-07 -1.445409671308e-10 0.000000000000e+00
9.990000000000e+02 0.000000000000e+00 2.450000000000e+01 8.381856314794e-08 -2.158969504469e-10 0.000000000000e+00
9.990000000000e+02 0.000000000000e+00 2.550000000000e+01 2.604356551372e-08 -2.246434848646e-10 0.000000000000e+00
9.990000000000e+02 0.000000000000e+00 2.650000000000e+01 3.647665573337e-09 -2.281893593666e-10 0.000000000000e+00
9.990000000000e+02 0.000000000000e+00 2.750000000000e+01 4.253043589818e-07 -4.031548453572e-10 0.000000000000e+00
9.990000000000e+02 0.000000000000e+00 2.850000000000e+01 3.190603909376e-10 -5.900985254498e-10 0.000000000000e+00
9.990000000000e+02 0.000000000000e+00 2.950000000000e+01 5.531428878925e-08 -3.119790813067e-09 0.000000000000e+00
