 TITLE = "Profiles along polylines"
 VARIABLES = "DIST" "HEAD" "VELOCITY_X1" "VELOCITY_Y1" "VELOCITY_Z1" 
 ZONE T="TIME=0.000000000000e+00"
0.000000000000e+00 3.000000000000e+01 0.000000000000e+00 0.000000000000e+00 0.000000000000e+00 
1.000000000000e+00 3.000000000000e+01 0.000000000000e+00 0.000000000000e+00 0.000000000000e+00 
2.000000000000e+00 3.000000000000e+01 0.000000000000e+00 0.000000000000e+00 0.000000000000e+00 
3.000000000000e+00 3.000000000000e+01 0.000000000000e+00 0.000000000000e+00 0.000000000000e+00 
4.000000000000e+00 3.000000000000e+01 0.000000000000e+00 0.000000000000e+00 0.000000000000e+00 
5.000000000000e+00 3.000000000000e+01 0.000000000000e+00 0.000000000000e+00 0.000000000000e+00 
6.000000000000e+00 3.000000000000e+01 0.000000000000e+00 0.000000000000e+00 0.000000000000e+00 
7.000000000000e+00 3.000000000000e+01 0.000000000000e+00 0.000000000000e+00 0.000000000000e+00 
8.000000000000e+00 3.000000000000e+01 0.000000000000e+00 0.000000000000e+00 0.000000000000e+00 
9.000000000000e+00 3.000000000000e+01 0.000000000000e+00 0.000000000000e+00 0.000000000000e+00 
1.000000000000e+01 3.000000000000e+01 0.000000000000e+00 0.000000000000e+00 0.000000000000e+00 
1.100000000000e+01 3.000000000000e+01 0.000000000000e+00 0.000000000000e+00 0.000000000000e+00 
1.200000000000e+01 3.000000000000e+01 0.000000000000e+00 0.000000000000e+00 0.000000000000e+00 
1.300000000000e+01 3.000000000000e+01 0.000000000000e+00 0.000000000000e+00 0.000000000000e+00 
1.400000000000e+01 3.000000000000e+01 0.000000000000e+00 0.000000000000e+00 0.000000000000e+00 
1.500000000000e+01 3.000000000000e+01 0.000000000000e+00 0.000000000000e+00 0.000000000000e+00 
1.600000000000e+01 3.000000000000e+01 0.000000000000e+00 0.000000000000e+00 0.000000000000e+00 
1.700000000000e+01 3.000000000000e+01 0.000000000000e+00 0.000000000000e+00 0.000000000000e+00 
1.800000000000e+01 3.000000000000e+01 0.000000000000e+00 0.000000000000e+00 0.000000000000e+00 
1.900000000000e+01 3.000000000000e+01 0.000000000000e+00 0.000000000000e+00 0.000000000000e+00 
2.000000000000e+01 3.000000000000e+01 0.000000000000e+00 0.000000000000e+00 0.000000000000e+00 
2.100000000000e+01 3.000000000000e+01 0.000000000000e+00 0.000000000000e+00 0.000000000000e+00 
2.200000000000e+01 3.000000000000e+01 0.000000000000e+00 0.000000000000e+00 0.000000000000e+00 
2.300000000000e+01 3.000000000000e+01 0.000000000000e+00 0.000000000000e+00 0.000000000000e+00 
2.400000000000e+01 3.000000000000e+01 0.000000000000e+00 0.000000000000e+00 0.000000000000e+00 
2.500000000000e+01 3.000000000000e+01 0.000000000000e+00 0.000000000000e+00 0.000000000000e+00 
2.600000000000e+01 3.000000000000e+01 0.000000000000e+00 0.000000000000e+00 0.000000000000e+00 
2.700000000000e+01 3.000000000000e+01 0.000000000000e+00 0.000000000000e+00 0.000000000000e+00 
2.800000000000e+01 3.000000000000e+01 0.000000000000e+00 0.000000000000e+00 0.000000000000e+00 
2.900000000000e+01 3.000000000000e+01 0.000000000000e+00 0.000000000000e+00 0.000000000000e+00 
3.000000000000e+01 3.000000000000e+01 0.000000000000e+00 0.000000000000e+00 0.000000000000e+00 
 TITLE = "Profiles along polylines"
 VARIABLES = "DIST" "HEAD" "VELOCITY_X1" "VELOCITY_Y1" "VELOCITY_Z1" 
 ZONE T="TIME=1.797693134862e+308"
0.000000000000e+00 3.010180518586e+01 2.187613637896e-08 -9.943612689639e-12 0.000000000000e+00 
1.000000000000e+00 3.010180563305e+01 3.361800040081e-08 -2.522495029367e-11 0.000000000000e+00 
2.000000000000e+00 3.010180651159e+01 2.343851468244e-08 -5.116121960648e-11 0.000000000000e+00 
3.000000000000e+00 3.010184660029e+01 2.812796551170e-07 -1.901167124412e-10 0.000000000000e+00 
4.000000000000e+00 3.010184715875e+01 2.821328074044e-07 -4.471127634881e-10 0.000000000000e+00 
5.000000000000e+00 3.010202299788e+01 4.966712847074e-07 -8.056847653880e-10 0.000000000000e+00 
6.000000000000e+00 3.010202402783e+01 4.970197644573e-07 -1.265618136838e-09 0.000000000000e+00 
7.000000000000e+00 3.010240001933e+01 2.421336256342e-07 -1.611096160948e-09 0.000000000000e+00 
8.000000000000e+00 3.010240356450e+01 9.090792001042e-07 -2.159976799978e-09 0.000000000000e+00 
9.000000000000e+00 3.010240547657e+01 7.407555574137e-07 -2.946686806561e-09 0.000000000000e+00 
1.000000000000e+01 3.010242812799e+01 7.916431884324e-08 -3.337749755915e-09 0.000000000000e+00 
1.100000000000e+01 3.010265583561e+01 2.013274084651e-08 -3.385332892290e-09 0.000000000000e+00 
1.200000000000e+01 3.010278661434e+01 2.123177681144e-08 -3.405501062739e-09 0.000000000000e+00 
1.300000000000e+01 3.010298720173e+01 2.020565096035e-08 -3.425929328103e-09 0.000000000000e+00 
1.400000000000e+01 3.010313125307e+01 1.733680950891e-08 -3.444650247435e-09 0.000000000000e+00 
1.500000000000e+01 3.010343941716e+01 2.795909144020e-08 -3.467641811794e-09 0.000000000000e+00 
1.600000000000e+01 3.010351633553e+01 2.979369279014e-08 -3.497259139491e-09 0.000000000000e+00 
1.700000000000e+01 3.010375216183e+01 3.602688436551e-08 -3.531374912045e-09 0.000000000000e+00 
1.800000000000e+01 3.010381359231e+01 2.932355527454e-08 -3.565535748046e-09 0.000000000000e+00 
1.900000000000e+01 3.010645222302e+01 1.086151459468e-09 -3.581557947985e-09 0.000000000000e+00 
2.000000000000e+01 3.011085837213e+01 3.144359803220e-08 -3.605711214261e-09 0.000000000000e+00 
2.100000000000e+01 3.011091783632e+01 3.265343303924e-08 -3.653658017811e-09 0.000000000000e+00 
2.200000000000e+01 3.011207466243e+01 4.711521619792e-08 -3.714969826253e-09 0.000000000000e+00 
2.300000000000e+01 3.011211676268e+01 4.464414527159e-07 -4.101579074354e-09 0.000000000000e+00 
2.400000000000e+01 3.011212243084e+01 4.359902634198e-07 -4.792943677686e-09 0.000000000000e+00 
2.500000000000e+01 3.011219723767e+01 4.589401566537e-08 -5.170538483960e-09 0.000000000000e+00 
2.600000000000e+01 3.011244226752e+01 1.234559472359e-08 -5.216218435540e-09 0.000000000000e+00 
2.700000000000e+01 3.011422757854e+01 1.656870698271e-07 -5.357785446534e-09 0.000000000000e+00 
2.800000000000e+01 3.011424467147e+01 1.642856134296e-07 -5.620421848079e-09 0.000000000000e+00 
2.900000000000e+01 3.014547368542e+01 5.784960347411e-09 -5.755831738413e-09 0.000000000000e+00 
3.000000000000e+01 3.014599151140e+01 1.138156058820e-08 -5.760474736249e-09 0.000000000000e+00 
