 TITLE = "Profiles along polylines"
 VARIABLES = "DIST" "HEAD" "VELOCITY_X1" "VELOCITY_Y1" "VELOCITY_Z1" 
 ZONE T="TIME=0.000000000000e+00"
0.000000000000e+00 3.000000000000e+01 0.000000000000e+00 0.000000000000e+00 0.000000000000e+00 
1.000000000000e+00 3.000000000000e+01 0.000000000000e+00 0.000000000000e+00 0.000000000000e+00 
2.000000000000e+00 3.000000000000e+01 0.000000000000e+00 0.000000000000e+00 0.000000000000e+00 
3.000000000000e+00 3.000000000000e+01 0.000000000000e+00 0.000000000000e+00 0.000000000000e+00 
4.000000000000e+00 3.000000000000e+01 0.000000000000e+00 0.000000000000e+00 0.000000000000e+00 
5.000000000000e+00 3.000000000000e+01 0.000000000000e+00 0.000000000000e+00 0.000000000000e+00 
6.000000000000e+00 3.000000000000e+01 0.000000000000e+00 0.000000000000e+00 0.000000000000e+00 
7.000000000000e+00 3.000000000000e+01 0.000000000000e+00 0.000000000000e+00 0.000000000000e+00 
8.000000000000e+00 3.000000000000e+01 0.000000000000e+00 0.000000000000e+00 0.000000000000e+00 
9.000000000000e+00 3.000000000000e+01 0.000000000000e+00 0.000000000000e+00 0.000000000000e+00 
1.000000000000e+01 3.000000000000e+01 0.000000000000e+00 0.000000000000e+00 0.000000000000e+00 
1.100000000000e+01 3.000000000000e+01 0.000000000000e+00 0.000000000000e+00 0.000000000000e+00 
1.200000000000e+01 3.000000000000e+01 0.000000000000e+00 0.000000000000e+00 0.000000000000e+00 
1.300000000000e+01 3.000000000000e+01 0.000000000000e+00 0.000000000000e+00 0.000000000000e+00 
1.400000000000e+01 3.000000000000e+01 0.000000000000e+00 0.000000000000e+00 0.000000000000e+00 
1.500000000000e+01 3.000000000000e+01 0.000000000000e+00 0.000000000000e+00 0.000000000000e+00 
1.600000000000e+01 3.000000000000e+01 0.000000000000e+00 0.000000000000e+00 0.000000000000e+00 
1.700000000000e+01 3.000000000000e+01 0.000000000000e+00 0.000000000000e+00 0.000000000000e+00 
1.800000000000e+01 3.000000000000e+01 0.000000000000e+00 0.000000000000e+00 0.000000000000e+00 
1.900000000000e+01 3.000000000000e+01 0.000000000000e+00 0.000000000000e+00 0.000000000000e+00 
2.000000000000e+01 3.000000000000e+01 0.000000000000e+00 0.000000000000e+00 0.000000000000e+00 
2.100000000000e+01 3.000000000000e+01 0.000000000000e+00 0.000000000000e+00 0.000000000000e+00 
2.200000000000e+01 3.000000000000e+01 0.000000000000e+00 0.000000000000e+00 0.000000000000e+00 
2.300000000000e+01 3.000000000000e+01 0.000000000000e+00 0.000000000000e+00 0.000000000000e+00 
2.400000000000e+01 3.000000000000e+01 0.000000000000e+00 0.000000000000e+00 0.000000000000e+00 
2.500000000000e+01 3.000000000000e+01 0.000000000000e+00 0.000000000000e+00 0.000000000000e+00 
2.600000000000e+01 3.000000000000e+01 0.000000000000e+00 0.000000000000e+00 0.000000000000e+00 
2.700000000000e+01 3.000000000000e+01 0.000000000000e+00 0.000000000000e+00 0.000000000000e+00 
2.800000000000e+01 3.000000000000e+01 0.000000000000e+00 0.000000000000e+00 0.000000000000e+00 
2.900000000000e+01 3.000000000000e+01 0.000000000000e+00 0.000000000000e+00 0.000000000000e+00 
3.000000000000e+01 3.000000000000e+01 0.000000000000e+00 0.000000000000e+00 0.000000000000e+00 
 TITLE = "Profiles along polylines"
 VARIABLES = "DIST" "HEAD" "VELOCITY_X1" "VELOCITY_Y1" "VELOCITY_Z1" 
 ZONE T="TIME=1.797693134862e+308"
0.000000000000e+00 3.040586407352e+01 2.547722862878e-08 -2.543571945585e-11 0.000000000000e+00 
1.000000000000e+00 3.040586462519e+01 1.354736024052e-08 -3.895993978667e-11 0.000000000000e+00 
2.000000000000e+00 3.040588255517e+01 2.786014187275e-07 -3.306329538845e-10 0.000000000000e+00 
3.000000000000e+00 3.040588316066e+01 2.839362780162e-07 -8.922345098821e-10 0.000000000000e+00 
4.000000000000e+00 3.040593603352e+01 1.865071021742e-08 -1.194307496580e-09 0.000000000000e+00 
5.000000000000e+00 3.040596282788e+01 3.147099023938e-08 -1.244347404903e-09 0.000000000000e+00 
6.000000000000e+00 3.040598141490e+01 1.984235600867e-08 -1.295576366212e-09 0.000000000000e+00 
7.000000000000e+00 3.040639512501e+01 1.103109313445e-09 -1.316487080182e-09 0.000000000000e+00 
8.000000000000e+00 3.040801576604e+01 3.750067345281e-07 -1.692204266510e-09 0.000000000000e+00 
9.000000000000e+00 3.040801728985e+01 3.778785761137e-07 -2.444276789011e-09 0.000000000000e+00 
1.000000000000e+01 3.040826909155e+01 9.184107172798e-08 -2.913484414548e-09 0.000000000000e+00 
1.100000000000e+01 3.040827844883e+01 8.917068967069e-08 -3.094311356797e-09 0.000000000000e+00 
1.200000000000e+01 3.041034292314e+01 1.579880983635e-07 -3.341291399295e-09 0.000000000000e+00 
1.300000000000e+01 3.041034906027e+01 1.634338947654e-07 -3.662530742913e-09 0.000000000000e+00 
1.400000000000e+01 3.041052911360e+01 9.968477698587e-09 -3.835829267878e-09 0.000000000000e+00 
1.500000000000e+01 3.041078854185e+01 8.212724611566e-09 -3.854001315728e-09 0.000000000000e+00 
1.600000000000e+01 3.041104784187e+01 8.822252866253e-09 -3.871028782702e-09 0.000000000000e+00 
1.700000000000e+01 3.041127567313e+01 4.496603601733e-08 -3.924797388182e-09 0.000000000000e+00 
1.800000000000e+01 3.041130292226e+01 1.748452318488e-07 -4.144529073723e-09 0.000000000000e+00 
1.900000000000e+01 3.041131179136e+01 1.514515866787e-07 -4.470700738331e-09 0.000000000000e+00 
2.000000000000e+01 3.041138752393e+01 1.691719434635e-08 -4.639001483850e-09 0.000000000000e+00 
2.100000000000e+01 3.043666917501e+01 4.262698843966e-10 -4.656340228662e-09 0.000000000000e+00 
2.200000000000e+01 3.044010057582e+01 2.175960472869e-07 -4.875393487824e-09 0.000000000000e+00 
2.300000000000e+01 3.044010706236e+01 2.183209997211e-07 -5.313354649510e-09 0.000000000000e+00 
2.400000000000e+01 3.044149790238e+01 2.006086141693e-09 -5.534706151504e-09 0.000000000000e+00 
2.500000000000e+01 3.044318869493e+01 1.689130949566e-08 -5.553694374581e-09 0.000000000000e+00 
2.600000000000e+01 3.044328508701e+01 1.906259378382e-08 -5.589820364605e-09 0.000000000000e+00 
2.700000000000e+01 3.044378929412e+01 2.772725678098e-08 -5.636834586915e-09 0.000000000000e+00 
2.800000000000e+01 3.044385285917e+01 3.183108385985e-08 -5.696678766542e-09 0.000000000000e+00 
2.900000000000e+01 3.044407352612e+01 1.377859766392e-08 -5.742506856718e-09 0.000000000000e+00 
3.000000000000e+01 3.044431485901e+01 1.319541780567e-08 -5.756351650625e-09 0.000000000000e+00 
