VARIABLES = "X","Y","Z",VELOCITY1_X,VELOCITY1_Y,VELOCITY1_Z
ZONE T="0.000000000000e+00s", 
4.990000000000e+02 0.000000000000e+00 5.000000000000e-01 0.000000000000e+00 0.000000000000e+00 0.000000000000e+00
5.000000000000e+02 0.000000000000e+00 5.000000000000e-01 0.000000000000e+00 0.000000000000e+00 0.000000000000e+00
4.990000000000e+02 0.000000000000e+00 1.500000000000e+00 0.000000000000e+00 0.000000000000e+00 0.000000000000e+00
5.000000000000e+02 0.000000000000e+00 1.500000000000e+00 0.000000000000e+00 0.000000000000e+00 0.000000000000e+00
4.990000000000e+02 0.000000000000e+00 2.500000000000e+00 0.000000000000e+00 0.000000000000e+00 0.000000000000e+00
5.000000000000e+02 0.000000000000e+00 2.500000000000e+00 0.000000000000e+00 0.000000000000e+00 0.000000000000e+00
4.990000000000e+02 0.000000000000e+00 3.500000000000e+00 0.000000000000e+00 0.000000000000e+00 0.000000000000e+00
5.000000000000e+02 0.000000000000e+00 3.500000000000e+00 0.000000000000e+00 0.000000000000e+00 0.000000000000e+00
4.990000000000e+02 0.000000000000e+00 4.500000000000e+00 0.000000000000e+00 0.000000000000e+00 0.000000000000e+00
5.000000000000e+02 0.000000000000e+00 4.500000000000e+00 0.000000000000e+00 0.000000000000e+00 0.000000000000e+00
4.990000000000e+02 0.000000000000e+00 5.500000000000e+00 0.000000000000e+00 0.000000000000e+00 0.000000000000e+00
5.000000000000e+02 0.000000000000e+00 5.500000000000e+00 0.000000000000e+00 0.000000000000e+00 0.000000000000e+00
4.990000000000e+02 0.000000000000e+00 6.500000000000e+00 0.000000000000e+00 0.000000000000e+00 0.000000000000e+00
5.000000000000e+02 0.000000000000e+00 6.500000000000e+00 0.000000000000e+00 0.000000000000e+00 0.000000000000e+00
4.990000000000e+02 0.000000000000e+00 7.500000000000e+00 0.000000000000e+00 0.000000000000e+00 0.000000000000e+00
5.000000000000e+02 0.000000000000e+00 7.500000000000e+00 0.000000000000e+00 0.000000000000e+00 0.000000000000e+00
4.990000000000e+02 0.000000000000e+00 8.500000000000e+00 0.000000000000e+00 0.000000000000e+00 0.000000000000e+00
5.000000000000e+02 0.000000000000e+00 8.500000000000e+00 0.000000000000e+00 0.000000000000e+00 0.000000000000e+00
4.990000000000e+02 0.000000000000e+00 9.500000000000e+00 0.000000000000e+00 0.000000000000e+00 0.000000000000e+00
5.000000000000e+02 0.000000000000e+00 9.500000000000e+00 0.000000000000e+00 0.000000000000e+00 0.000000000000e+00
4.990000000000e+02 0.000000000000e+00 1.050000000000e+01 0.000000000000e+00 0.000000000000e+00 0.000000000000e+00
5.000000000000e+02 0.000000000000e+00 1.050000000000e+01 0.000000000000e+00 0.000000000000e+00 0.000000000000e+00
4.990000000000e+02 0.000000000000e+00 1.150000000000e+01 0.000000000000e+00 0.000000000000e+00 0.000000000000e+00
5.000000000000e+02 0.000000000000e+00 1.150000000000e+01 0.000000000000e+00 0.000000000000e+00 0.000000000000e+00
4.990000000000e+02 0.000000000000e+00 1.250000000000e+01 0.000000000000e+00 0.000000000000e+00 0.000000000000e+00
5.000000000000e+02 0.000000000000e+00 1.250000000000e+01 0.000000000000e+00 0.000000000000e+00 0.000000000000e+00
4.990000000000e+02 0.000000000000e+00 1.350000000000e+01 0.000000000000e+00 0.000000000000e+00 0.000000000000e+00
5.000000000000e+02 0.000000000000e+00 1.350000000000e+01 0.000000000000e+00 0.000000000000e+00 0.000000000000e+00
4.990000000000e+02 0.000000000000e+00 1.450000000000e+01 0.000000000000e+00 0.000000000000e+00 0.000000000000e+00
5.000000000000e+02 0.000000000000e+00 1.450000000000e+01 0.000000000000e+00 0.000000000000e+00 0.000000000000e+00
4.990000000000e+02 0.000000000000e+00 1.550000000000e+01 0.000000000000e+00 0.000000000000e+00 0.000000000000e+00
5.000000000000e+02 0.000000000000e+00 1.550000000000e+01 0.000000000000e+00 0.000000000000e+00 0.000000000000e+00
4.990000000000e+02 0.000000000000e+00 1.650000000000e+01 0.000000000000e+00 0.000000000000e+00 0.000000000000e+00
5.000000000000e+02 0.000000000000e+00 1.650000000000e+01 0.000000000000e+00 0.000000000000e+00 0.000000000000e+00
4.990000000000e+02 0.000000000000e+00 1.750000000000e+01 0.000000000000e+00 0.000000000000e+00 0.000000000000e+00
5.000000000000e+02 0.000000000000e+00 1.750000000000e+01 0.000000000000e+00 0.000000000000e+00 0.000000000000e+00
4.990000000000e+02 0.000000000000e+00 1.850000000000e+01 0.000000000000e+00 0.000000000000e+00 0.000000000000e+00
5.000000000000e+02 0.000000000000e+00 1.850000000000e+01 0.000000000000e+00 0.000000000000e+00 0.000000000000e+00
4.990000000000e+02 0.000000000000e+00 1.950000000000e+01 0.000000000000e+00 0.000000000000e+00 0.000000000000e+00
5.000000000000e+02 0.000000000000e+00 1.950000000000e+01 0.000000000000e+00 0.000000000000e+00 0.000000000000e+00
4.990000000000e+02 0.000000000000e+00 2.050000000000e+01 0.000000000000e+00 0.000000000000e+00 0.000000000000e+00
5.000000000000e+02 0.000000000000e+00 2.050000000000e+01 0.000000000000e+00 0.000000000000e+00 0.000000000000e+00
4.990000000000e+02 0.000000000000e+00 2.150000000000e+01 0.000000000000e+00 0.000000000000e+00 0.000000000000e+00
5.000000000000e+02 0.000000000000e+00 2.150000000000e+01 0.000000000000e+00 0.000000000000e+00 0.000000000000e+00
4.990000000000e+02 0.000000000000e+00 2.250000000000e+01 0.000000000000e+00 0.000000000000e+00 0.000000000000e+00
5.000000000000e+02 0.000000000000e+00 2.250000000000e+01 0.000000000000e+00 0.000000000000e+00 0.000000000000e+00
4.990000000000e+02 0.000000000000e+00 2.350000000000e+01 0.000000000000e+00 0.000000000000e+00 0.000000000000e+00
5.000000000000e+02 0.000000000000e+00 2.350000000000e+01 0.000000000000e+00 0.000000000000e+00 0.000000000000e+00
4.990000000000e+02 0.000000000000e+00 2.450000000000e+01 0.000000000000e+00 0.000000000000e+00 0.000000000000e+00
5.000000000000e+02 0.000000000000e+00 2.450000000000e+01 0.000000000000e+00 0.000000000000e+00 0.000000000000e+00
4.990000000000e+02 0.000000000000e+00 2.550000000000e+01 0.000000000000e+00 0.000000000000e+00 0.000000000000e+00
5.000000000000e+02 0.000000000000e+00 2.550000000000e+01 0.000000000000e+00 0.000000000000e+00 0.000000000000e+00
4.990000000000e+02 0.000000000000e+00 2.650000000000e+01 0.000000000000e+00 0.000000000000e+00 0.000000000000e+00
5.000000000000e+02 0.000000000000e+00 2.650000000000e+01 0.000000000000e+00 0.000000000000e+00 0.000000000000e+00
4.990000000000e+02 0.000000000000e+00 2.750000000000e+01 0.000000000000e+00 0.000000000000e+00 0.000000000000e+00
5.000000000000e+02 0.000000000000e+00 2.750000000000e+01 0.000000000000e+00 0.000000000000e+00 0.000000000000e+00
4.990000000000e+02 0.000000000000e+00 2.850000000000e+01 0.000000000000e+00 0.000000000000e+00 0.000000000000e+00
5.000000000000e+02 0.000000000000e+00 2.850000000000e+01 0.000000000000e+00 0.000000000000e+00 0.000000000000e+00
4.990000000000e+02 0.000000000000e+00 2.950000000000e+01 0.000000000000e+00 0.000000000000e+00 0.000000000000e+00
5.000000000000e+02 0.000000000000e+00 2.950000000000e+01 0.000000000000e+00 0.000000000000e+00 0.000000000000e+00
VARIABLES = "X","Y","Z",VELOCITY1_X,VELOCITY1_Y,VELOCITY1_Z
ZONE T="1.797693134862e+308s", 
4.990000000000e+02 0.000000000000e+00 5.000000000000e-01 2.545179257145e-08 -2.543630076950e-11 0.000000000000e+00
5.000000000000e+02 0.000000000000e+00 5.000000000000e-01 2.550266483748e-08 -2.543564195813e-11 0.000000000000e+00
4.990000000000e+02 0.000000000000e+00 1.500000000000e+00 1.615876456909e-09 -5.248541313671e-11 0.000000000000e+00
5.000000000000e+02 0.000000000000e+00 1.500000000000e+00 1.619106224883e-09 -5.248399893121e-11 0.000000000000e+00
4.990000000000e+02 0.000000000000e+00 2.500000000000e+00 5.550306546143e-07 -6.087957189460e-10 0.000000000000e+00
5.000000000000e+02 0.000000000000e+00 2.500000000000e+00 5.561400387185e-07 -6.087798983478e-10 0.000000000000e+00
4.990000000000e+02 0.000000000000e+00 3.500000000000e+00 1.227493118646e-08 -1.175715145692e-09 0.000000000000e+00
5.000000000000e+02 0.000000000000e+00 3.500000000000e+00 1.229946613227e-08 -1.175683673060e-09 0.000000000000e+00
4.990000000000e+02 0.000000000000e+00 4.500000000000e+00 2.498922292288e-08 -1.212956497548e-09 0.000000000000e+00
5.000000000000e+02 0.000000000000e+00 4.500000000000e+00 2.503917181122e-08 -1.212924012797e-09 0.000000000000e+00
4.990000000000e+02 0.000000000000e+00 5.500000000000e+00 3.788989019350e-08 -1.275797450323e-09 0.000000000000e+00
5.000000000000e+02 0.000000000000e+00 5.500000000000e+00 3.796562580904e-08 -1.275763166059e-09 0.000000000000e+00
4.990000000000e+02 0.000000000000e+00 6.500000000000e+00 1.755173213340e-09 -1.315416849228e-09 0.000000000000e+00
5.000000000000e+02 0.000000000000e+00 6.500000000000e+00 1.758681578068e-09 -1.315381631846e-09 0.000000000000e+00
4.990000000000e+02 0.000000000000e+00 7.500000000000e+00 4.488151883750e-10 -1.317619747513e-09 0.000000000000e+00
5.000000000000e+02 0.000000000000e+00 7.500000000000e+00 4.497124454974e-10 -1.317584493629e-09 0.000000000000e+00
4.990000000000e+02 0.000000000000e+00 8.500000000000e+00 7.488153844588e-07 -2.066861771765e-09 0.000000000000e+00
5.000000000000e+02 0.000000000000e+00 8.500000000000e+00 7.503129738023e-07 -2.066814659305e-09 0.000000000000e+00
4.990000000000e+02 0.000000000000e+00 9.500000000000e+00 6.186751505634e-09 -2.821788324804e-09 0.000000000000e+00
5.000000000000e+02 0.000000000000e+00 9.500000000000e+00 6.199124748544e-09 -2.821726511508e-09 0.000000000000e+00
4.990000000000e+02 0.000000000000e+00 1.050000000000e+01 1.773118403700e-07 -3.005292084694e-09 0.000000000000e+00
5.000000000000e+02 0.000000000000e+00 1.050000000000e+01 1.776664746033e-07 -3.005227907546e-09 0.000000000000e+00
4.990000000000e+02 0.000000000000e+00 1.150000000000e+01 8.513207837967e-10 -3.183447698661e-09 0.000000000000e+00
5.000000000000e+02 0.000000000000e+00 1.150000000000e+01 8.530235678464e-10 -3.183379689410e-09 0.000000000000e+00
4.990000000000e+02 0.000000000000e+00 1.250000000000e+01 3.148090100282e-07 -3.499258341012e-09 0.000000000000e+00
5.000000000000e+02 0.000000000000e+00 1.250000000000e+01 3.154389338616e-07 -3.499187255043e-09 0.000000000000e+00
4.990000000000e+02 0.000000000000e+00 1.350000000000e+01 1.173202484164e-08 -3.825931941829e-09 0.000000000000e+00
5.000000000000e+02 0.000000000000e+00 1.350000000000e+01 1.175550040768e-08 -3.825857662188e-09 0.000000000000e+00
4.990000000000e+02 0.000000000000e+00 1.450000000000e+01 8.184945685367e-09 -3.845858374440e-09 0.000000000000e+00
5.000000000000e+02 0.000000000000e+00 1.450000000000e+01 8.201324230525e-09 -3.845783911095e-09 0.000000000000e+00
4.990000000000e+02 0.000000000000e+00 1.550000000000e+01 8.224027502958e-09 -3.862276311889e-09 0.000000000000e+00
5.000000000000e+02 0.000000000000e+00 1.550000000000e+01 8.240485100949e-09 -3.862201723648e-09 0.000000000000e+00
4.990000000000e+02 0.000000000000e+00 1.650000000000e+01 9.402782659026e-09 -3.879913524690e-09 0.000000000000e+00
5.000000000000e+02 0.000000000000e+00 1.650000000000e+01 9.421600082483e-09 -3.879838818653e-09 0.000000000000e+00
4.990000000000e+02 0.000000000000e+00 1.750000000000e+01 8.043932930996e-08 -3.969814210088e-09 0.000000000000e+00
5.000000000000e+02 0.000000000000e+00 1.750000000000e+01 8.060031583367e-08 -3.969738855796e-09 0.000000000000e+00
4.990000000000e+02 0.000000000000e+00 1.850000000000e+01 2.689014997870e-07 -4.319379641386e-09 0.000000000000e+00
5.000000000000e+02 0.000000000000e+00 1.850000000000e+01 2.694396657236e-07 -4.319301851848e-09 0.000000000000e+00
4.990000000000e+02 0.000000000000e+00 1.950000000000e+01 3.369880866153e-08 -4.622161405237e-09 0.000000000000e+00
5.000000000000e+02 0.000000000000e+00 1.950000000000e+01 3.376625195215e-08 -4.622081670096e-09 0.000000000000e+00
4.990000000000e+02 0.000000000000e+00 2.050000000000e+01 1.016945045635e-10 -4.655983090773e-09 0.000000000000e+00
5.000000000000e+02 0.000000000000e+00 2.050000000000e+01 1.018981363929e-10 -4.655903075563e-09 0.000000000000e+00
4.990000000000e+02 0.000000000000e+00 2.150000000000e+01 7.499272967218e-10 -4.656839100230e-09 0.000000000000e+00
5.000000000000e+02 0.000000000000e+00 2.150000000000e+01 7.514349873764e-10 -4.656759138437e-09 0.000000000000e+00
4.990000000000e+02 0.000000000000e+00 2.250000000000e+01 4.340048423644e-07 -5.094061565963e-09 0.000000000000e+00
5.000000000000e+02 0.000000000000e+00 2.250000000000e+01 4.348778528092e-07 -5.094013217657e-09 0.000000000000e+00
4.990000000000e+02 0.000000000000e+00 2.350000000000e+01 2.198399649394e-09 -5.532705837306e-09 0.000000000000e+00
5.000000000000e+02 0.000000000000e+00 2.350000000000e+01 2.202821800092e-09 -5.532688618873e-09 0.000000000000e+00
4.990000000000e+02 0.000000000000e+00 2.450000000000e+01 1.809727896320e-09 -5.536736728309e-09 0.000000000000e+00
5.000000000000e+02 0.000000000000e+00 2.450000000000e+01 1.813368361197e-09 -5.536719795426e-09 0.000000000000e+00
4.990000000000e+02 0.000000000000e+00 2.550000000000e+01 3.193893180024e-08 -5.570679843760e-09 0.000000000000e+00
5.000000000000e+02 0.000000000000e+00 2.550000000000e+01 3.200318301451e-08 -5.570665379755e-09 0.000000000000e+00
4.990000000000e+02 0.000000000000e+00 2.650000000000e+01 6.147934712256e-09 -5.608984086678e-09 0.000000000000e+00
5.000000000000e+02 0.000000000000e+00 2.650000000000e+01 6.160302481372e-09 -5.608972370931e-09 0.000000000000e+00
4.990000000000e+02 0.000000000000e+00 2.750000000000e+01 4.925084620632e-08 -5.664702276736e-09 0.000000000000e+00
5.000000000000e+02 0.000000000000e+00 2.750000000000e+01 4.934992457778e-08 -5.664694606653e-09 0.000000000000e+00
4.990000000000e+02 0.000000000000e+00 2.850000000000e+01 1.434734451616e-08 -5.728664650553e-09 0.000000000000e+00
5.000000000000e+02 0.000000000000e+00 2.850000000000e+01 1.437620719242e-08 -5.728661733292e-09 0.000000000000e+00
4.990000000000e+02 0.000000000000e+00 2.950000000000e+01 1.318215765585e-08 -5.756352468664e-09 0.000000000000e+00
5.000000000000e+02 0.000000000000e+00 2.950000000000e+01 1.320867631715e-08 -5.756351546433e-09 0.000000000000e+00
